LAMMPS data file via write_data, version 29 Sep 2021, timestep = 39335400

2910 atoms
3 atom types

2.192877 31.975895 xlo xhi
-0.77555 30.112649 ylo yhi
20.117 76.516 zlo zhi

Masses

1 55.845
2 55.845
3 15.994

Pair Coeffs # lj/cut/coul/long

1 9.0298e-07 4.9062
2 9.0298e-07 4.9062
3 0.1554 3.16554

Atoms # full

6 2 1 1.05 8.83794 1.39116 32.119704 0 0 0
27 2 2 1.575 2.879725 1.388255 32.120097 0 0 0
29 2 1 1.05 5.855034 6.54159 32.12069 0 0 0
69 0 3 -1.05 5.859272 -0.328522 32.913669 0 0 0
70 0 3 -1.05 4.390041 2.257849 32.865908 0 0 0
80 0 3 -1.05 2.880619 -0.352017 32.87189 0 0 0
109 0 3 -1.05 7.326674 2.259237 32.865639 0 0 0
116 0 3 -1.05 5.85778 4.799209 32.867421 0 0 0
121 0 3 -1.05 8.837735 -0.349401 32.870612 0 0 0
129 0 3 -1.05 8.837031 4.821898 32.91093 0 0 0
139 0 3 -1.05 2.879505 4.822052 32.910662 0 0 0
165 2 2 1.575 4.381332 3.95611 33.804552 0 0 0
191 2 2 1.575 2.877925 6.555277 33.805659 0 0 0
192 2 2 1.575 8.836012 6.555669 33.803689 0 0 0
195 2 2 1.575 5.859142 1.405493 33.805535 0 0 0
196 2 2 1.575 7.334456 3.957387 33.804828 0 0 0
252 0 3 -1.05 4.475285 0.470386 35.112473 0 0 0
304 0 3 -1.05 2.880514 3.224584 35.108552 0 0 0
323 0 3 -1.05 5.858919 3.105519 35.009849 0 0 0
329 0 3 -1.05 8.837442 3.22544 35.109516 0 0 0
333 0 3 -1.05 7.243494 0.471425 35.112394 0 0 0
336 0 3 -1.05 4.264507 5.619734 35.109438 0 0 0
354 0 3 -1.05 7.452536 5.619775 35.109306000000004 0 0 0
363 1 2 1.575 8.837456 1.388116 35.64045 0 0 0
370 1 2 1.575 5.85846 6.536314 35.637299 0 0 0
387 1 2 1.575 2.88106 1.387045 35.639005 0 0 0
402 2 2 1.575 2.880703 4.821136 36.303917 0 0 0
406 2 2 1.575 8.837597 4.822261 36.304205 0 0 0
413 2 2 1.575 5.859543 -0.32681 36.308118 0 0 0
444 1 2 1.575 5.85997 3.106851 36.915282 0 0 0
468 0 3 -1.05 8.838179 1.388218 37.560484 0 0 0
509 0 3 -1.05 2.881085 6.436107 37.507353 0 0 0
516 0 3 -1.05 8.837446 6.436911 37.506774 0 0 0
517 0 3 -1.05 7.438028 4.01407 37.506712 0 0 0
531 0 3 -1.05 5.859472 6.536874 37.557224 0 0 0
550 0 3 -1.05 4.28141 4.013903 37.50596 0 0 0
555 0 3 -1.05 2.881137 1.387556 37.558918 0 0 0
559 0 3 -1.05 5.859963 1.288297 37.510141000000004 0 0 0
583 2 1 1.05 4.376773 5.68314 38.700681 0 0 0
607 2 1 1.05 8.83831 3.098933 38.703082 0 0 0
611 2 1 1.05 7.355357 0.535913 38.705292 0 0 0
637 2 1 1.05 2.882181 3.098547 38.702056999999996 0 0 0
653 2 2 1.575 7.342632 5.683552 38.701458 0 0 0
657 2 2 1.575 4.364315 0.535366 38.704159000000004 0 0 0
675 0 3 -1.05 8.838035 -0.245076 39.856532 0 0 0
703 0 3 -1.05 8.83795 4.823837 39.803264 0 0 0
705 0 3 -1.05 4.300752 2.208322 39.854424 0 0 0
712 0 3 -1.05 2.881707 4.823259 39.802893 0 0 0
739 0 3 -1.05 5.859506 4.902293 39.851797 0 0 0
762 0 3 -1.05 7.420763 2.208651 39.856146 0 0 0
763 0 3 -1.05 5.860012 -0.323436 39.807806 0 0 0
774 0 3 -1.05 2.88146 -0.24526 39.855002999999996 0 0 0
793 1 2 1.575 5.86035 3.104849 40.494693 0 0 0
822 2 2 1.575 5.859388 6.538132 41.101276 0 0 0
832 2 1 1.05 8.839968 1.390571 41.105136 0 0 0
836 2 1 1.05 2.882811 1.390748 41.103364 0 0 0
863 1 2 1.575 2.881547 4.825011 41.710895 0 0 0
865 1 2 1.575 8.83828 4.8236 41.711377999999996 0 0 0
870 1 2 1.575 5.861542 -0.322564 41.715935 0 0 0
883 0 3 -1.05 4.445693 5.723335 42.323057 0 0 0
892 0 3 -1.05 7.274477 5.72344 42.322225 0 0 0
918 0 3 -1.05 8.840249 3.021388 42.326443 0 0 0
919 0 3 -1.05 2.883771 3.022157 42.324246 0 0 0
946 0 3 -1.05 7.42625 0.575408 42.327385 0 0 0
953 0 3 -1.05 4.297218 0.576631 42.325568000000004 0 0 0
986 0 3 -1.05 5.861995 3.106139 42.39132 0 0 0
998 2 2 1.575 7.352014 2.249925 43.508849 0 0 0
1004 2 2 1.575 8.840142 -0.32313 43.512207000000004 0 0 0
1021 2 1 1.05 2.88402 -0.321224 43.51097 0 0 0
1023 2 1 1.05 5.861115 4.824265 43.506033 0 0 0
1066 2 2 1.575 4.372523 2.250557 43.507143 0 0 0
1094 0 3 -1.05 5.86009 6.541022 44.615729 0 0 0
1102 0 3 -1.05 8.840679 1.394382 44.620439000000005 0 0 0
1114 0 3 -1.05 2.884062 1.396507 44.6181 0 0 0
1128 0 3 -1.05 2.880717 6.623204 44.671991 0 0 0
1133 0 3 -1.05 5.862033 1.476352 44.674664 0 0 0
1136 0 3 -1.05 7.278894 3.926418 44.673984000000004 0 0 0
1157 0 3 -1.05 8.838204 6.622568 44.672868 0 0 0
1195 0 3 -1.05 4.444865 3.926469 44.67427 0 0 0
1208 1 2 1.575 5.862439 -0.322418 45.304583 0 0 0
1226 1 2 1.575 8.840327 4.823176 45.300163999999995 0 0 0
1229 1 2 1.575 2.882946 4.82364 45.298894000000004 0 0 0
1247 2 1 1.05 5.862995 3.110706 45.910132000000004 0 0 0
1269 1 2 1.575 2.885587 1.398839 46.522706 0 0 0
1271 1 2 1.575 8.842292 1.39619 46.525096000000005 0 0 0
1282 1 2 1.575 5.861567 6.543974 46.520118 0 0 0
2305 2 1 1.05 7.360606 5.699013 53.127243 0 0 0
2326 2 1 1.05 4.383538 5.70048 53.125595 0 0 0
2347 2 1 1.05 4.379089 0.552308 53.127033 0 0 0
2356 2 2 1.575 8.848689 3.123824 53.128532 0 0 0
2367 2 2 1.575 7.358775 0.550985 53.127216 0 0 0
2370 2 1 1.05 2.891953 3.1264 53.126568 0 0 0
2426 0 3 -1.05 7.432169 4.022758 51.960445 0 0 0
2438 0 3 -1.05 2.890719 1.40922 52.017117 0 0 0
2462 0 3 -1.05 5.872857 6.555323 52.015747 0 0 0
2464 0 3 -1.05 5.869019 1.326062 51.960995 0 0 0
2467 0 3 -1.05 4.309679 4.024754 51.959164 0 0 0
2471 0 3 -1.05 8.84802 1.407267 52.018932 0 0 0
2478 0 3 -1.05 8.850881 6.472542 51.961842 0 0 0
2489 0 3 -1.05 2.89382 6.475336 51.958279 0 0 0
2519 1 2 1.575 5.870558 3.125961 51.334351 0 0 0
2544 2 1 1.05 8.84917 4.839101 50.725506 0 0 0
2547 2 2 1.575 2.893389 4.841013 50.722576 0 0 0
2548 2 2 1.575 5.868254 -0.308151 50.724281 0 0 0
2565 1 2 1.575 5.871975 6.553931 50.110992 0 0 0
2567 1 2 1.575 2.890615 1.407169 50.112617 0 0 0
2579 1 2 1.575 8.847342 1.405382 50.114361 0 0 0
2623 0 3 -1.05 8.848027 3.207079 49.494942 0 0 0
2647 0 3 -1.05 7.434924 5.655411 49.49419 0 0 0
2653 0 3 -1.05 2.892253 3.208474 49.492367 0 0 0
2663 0 3 -1.05 4.45285 0.508031 49.494293 0 0 0
2668 0 3 -1.05 7.284395 0.50755 49.495663 0 0 0
2688 0 3 -1.05 5.869998 3.124392 49.433826 0 0 0
2699 0 3 -1.05 4.30946 5.656063 49.492443 0 0 0
2709 2 1 1.05 5.869159 1.40713 48.319664 0 0 0
2721 2 1 1.05 2.895216 6.554921 48.315506 0 0 0
2725 2 2 1.575 7.359773 3.980621 48.319935 0 0 0
2728 2 1 1.05 8.850965 6.553143 48.318348 0 0 0
2750 2 2 1.575 4.381799 3.9813 48.318439 0 0 0
2819 0 3 -1.05 5.868641 -0.309483 47.20652 0 0 0
2824 0 3 -1.05 8.847168 -0.392496 47.151241 0 0 0
2825 0 3 -1.05 7.285758 2.305804 47.149254 0 0 0
2856 0 3 -1.05 2.890328 -0.392647 47.147888 0 0 0
2857 0 3 -1.05 5.871637 4.754783 47.148586 0 0 0
2864 0 3 -1.05 2.893759 4.837217 47.203533 0 0 0
2878 0 3 -1.05 4.454081 2.306224 47.148239 0 0 0
2879 0 3 -1.05 8.849355 4.835588 47.206402 0 0 0
1298 2 1 1.05 8.848133 1.403091 64.513229 0 0 0
1299 2 2 1.575 2.890831 1.404452 64.514107 0 0 0
1303 2 2 1.575 5.868198 6.556074 64.513199 0 0 0
1352 0 3 -1.05 4.400349 0.536222 63.765133 0 0 0
1387 0 3 -1.05 4.358448 5.687953 63.765156 0 0 0
1394 0 3 -1.05 5.869037 3.123229 63.721848 0 0 0
1398 0 3 -1.05 2.891054 3.146988 63.766941 0 0 0
1404 0 3 -1.05 8.847617 3.145252 63.765923 0 0 0
1410 0 3 -1.05 7.378386 5.687097 63.766609 0 0 0
1415 0 3 -1.05 7.337951 0.535283 63.764908 0 0 0
1499 2 2 1.575 2.890655 6.541287 62.825699 0 0 0
1508 2 2 1.575 4.366759 3.988617 62.827675 0 0 0
1516 2 2 1.575 5.869286 1.390389 62.826988 0 0 0
1522 2 2 1.575 8.847169 6.540307 62.827747 0 0 0
1530 2 2 1.575 7.371674 3.988171 62.828377 0 0 0
1560 0 3 -1.05 5.868746 -0.309811 61.620415 0 0 0
1572 0 3 -1.05 5.869846 4.720975 61.523865 0 0 0
1580 0 3 -1.05 8.848016 4.83918 61.623703 0 0 0
1618 0 3 -1.05 2.890389 4.840044 61.622684 0 0 0
1630 0 3 -1.05 8.848365 -0.429222 61.521507 0 0 0
1640 0 3 -1.05 4.485109 2.326793 61.522881 0 0 0
1645 0 3 -1.05 7.253865 2.325515 61.523033 0 0 0
1648 0 3 -1.05 2.889532 -0.428347 61.522095 0 0 0
1664 1 2 1.575 5.869624 6.558657 60.994694 0 0 0
1669 1 2 1.575 2.89087 1.410213 60.995609 0 0 0
1675 1 2 1.575 8.84858 1.409388 60.995647 0 0 0
1706 2 2 1.575 5.869894 3.125305 60.328247 0 0 0
1720 1 2 1.575 5.869348 -0.308811 59.715019 0 0 0
1727 1 2 1.575 8.849176 4.838813 59.7183 0 0 0
1738 1 2 1.575 2.891009 4.840878 59.717281 0 0 0
1765 0 3 -1.05 7.270365 3.93291 59.126625 0 0 0
1799 0 3 -1.05 2.890902 6.659324 59.121937 0 0 0
1800 0 3 -1.05 5.869316 1.511393 59.124855 0 0 0
1817 0 3 -1.05 8.84954 6.658025 59.125664 0 0 0
1843 0 3 -1.05 2.890507 1.41183 59.075527 0 0 0
1851 0 3 -1.05 5.870048 6.559538 59.074688 0 0 0
1854 0 3 -1.05 4.469709 3.933785 59.126507 0 0 0
1857 0 3 -1.05 8.848292 1.409689 59.075615 0 0 0
1891 2 1 1.05 5.870415 4.849126 57.930996 0 0 0
1915 2 1 1.05 2.889892 -0.297316 57.929626 0 0 0
1924 2 2 1.575 8.848343 -0.299306 57.929855 0 0 0
1934 2 2 1.575 7.365442 2.264249 57.931473 0 0 0
1938 2 1 1.05 4.37372 2.265764 57.931133 0 0 0
1985 0 3 -1.05 5.869847 3.124902 56.82954 0 0 0
2006 0 3 -1.05 8.849302 3.04495 56.781898 0 0 0
2032 0 3 -1.05 7.289779 5.739408 56.779694 0 0 0
2034 0 3 -1.05 4.309007 0.593563 56.77861 0 0 0
2039 0 3 -1.05 4.452966 5.739876 56.777962 0 0 0
2059 0 3 -1.05 2.890501 3.047616 56.781395 0 0 0
2067 0 3 -1.05 7.429364 0.592221 56.779072 0 0 0
2083 1 2 1.575 2.892282 4.84507 56.138271 0 0 0
2086 1 2 1.575 8.849985 4.843084 56.141106 0 0 0
2100 1 2 1.575 5.868921 -0.303038 56.138634 0 0 0
2107 2 2 1.575 5.872407 6.558261 55.530399 0 0 0
2123 2 1 1.05 8.848302 1.409355 55.531837 0 0 0
2130 2 2 1.575 2.890593 1.411583 55.531136 0 0 0
2155 1 2 1.575 5.870188 3.125019 54.921574 0 0 0
2216 0 3 -1.05 5.871728 4.927802 54.308346 0 0 0
2247 0 3 -1.05 2.88998 -0.219064 54.308445 0 0 0
2255 0 3 -1.05 8.849422 4.841668 54.244232 0 0 0
2256 0 3 -1.05 7.433726 2.224656 54.31073 0 0 0
2259 0 3 -1.05 2.893873 4.844809 54.241596 0 0 0
2272 0 3 -1.05 4.305505 2.226876 54.310108 0 0 0
2274 0 3 -1.05 8.847626 -0.221536 54.309578 0 0 0
2277 0 3 -1.05 5.868273 -0.305673 54.241951 0 0 0
7 2 1 1.05 2.882251 11.696099 32.129643 0 0 0
21 2 2 1.575 8.838657 11.696777 32.125945 0 0 0
36 0 3 -1.05 4.392614 12.563205 32.878102 0 0 0
54 0 3 -1.05 5.857444 9.975165 32.916089 0 0 0
83 0 3 -1.05 2.879208 9.95217 32.872794 0 0 0
98 0 3 -1.05 7.366031 7.410001 32.867041 0 0 0
113 0 3 -1.05 4.345842 7.41101 32.868128 0 0 0
120 0 3 -1.05 8.835855 9.952195 32.867996 0 0 0
122 0 3 -1.05 7.329448 12.562342 32.878468 0 0 0
173 2 2 1.575 5.860431 11.706298 33.814068 0 0 0
205 2 2 1.575 4.385799 14.258512 33.82213 0 0 0
223 2 2 1.575 7.360585 9.108403 33.80624 0 0 0
233 2 2 1.575 4.355306 9.10832 33.809189 0 0 0
234 2 2 1.575 7.337746 14.258478 33.821418 0 0 0
279 0 3 -1.05 5.861328 13.405766 35.024244 0 0 0
291 0 3 -1.05 5.858402 8.374866 35.11164 0 0 0
294 0 3 -1.05 2.883688 13.525704 35.124497 0 0 0
298 0 3 -1.05 2.878716 8.256022 35.012834 0 0 0
302 0 3 -1.05 8.8366 8.256496 35.009613 0 0 0
317 0 3 -1.05 8.83943 13.525928 35.122965 0 0 0
320 0 3 -1.05 4.474015 10.769602 35.115947 0 0 0
326 0 3 -1.05 7.243696 10.769029 35.115148 0 0 0
362 1 2 1.575 2.880854 11.68628 35.646408 0 0 0
390 1 2 1.575 8.836909 11.686531 35.644944 0 0 0
408 2 2 1.575 5.85881 9.970704 36.309063 0 0 0
443 1 2 1.575 8.836547 8.256772 36.915289 0 0 0
445 1 2 1.575 5.86047 13.406324 36.929373 0 0 0
447 1 2 1.575 2.8794 8.25642 36.918084 0 0 0
471 0 3 -1.05 4.283254 14.313781 37.522619 0 0 0
479 0 3 -1.05 5.858829 11.584693 37.513913 0 0 0
486 0 3 -1.05 4.457787 9.163337 37.510113000000004 0 0 0
496 0 3 -1.05 2.881049 11.687907 37.566105 0 0 0
498 0 3 -1.05 7.438344 14.313747 37.521418 0 0 0
532 0 3 -1.05 7.259132 9.163525 37.509565 0 0 0
570 0 3 -1.05 8.836829 11.687432 37.564927 0 0 0
573 2 2 1.575 4.363353 10.832563 38.707485 0 0 0
602 2 1 1.05 2.881877 13.396878 38.714051 0 0 0
612 2 1 1.05 5.858647 8.246922 38.703117 0 0 0
618 2 1 1.05 8.837942 13.396021 38.713271 0 0 0
659 2 1 1.05 7.35397 10.832076 38.707114000000004 0 0 0
683 0 3 -1.05 4.300107 12.504581 39.86219 0 0 0
687 0 3 -1.05 7.277735 7.35607 39.853415 0 0 0
715 0 3 -1.05 4.440017 7.355513 39.853603 0 0 0
722 0 3 -1.05 2.880461 10.051998 39.857888 0 0 0
743 0 3 -1.05 5.858357 9.970575 39.806982 0 0 0
753 0 3 -1.05 7.417577 12.504141 39.860932 0 0 0
773 0 3 -1.05 8.8367 10.051731 39.856991 0 0 0
804 1 2 1.575 5.859152 13.401226 40.503409 0 0 0
808 1 2 1.575 2.881102 8.252545 40.494604 0 0 0
810 1 2 1.575 8.836969 8.25254 40.494353000000004 0 0 0
817 2 1 1.05 2.880103 11.687116 41.10917 0 0 0
829 2 2 1.575 8.836434 11.686494 41.108272 0 0 0
868 1 2 1.575 5.857876 9.972559 41.714664 0 0 0
916 0 3 -1.05 2.880006 13.317421 42.333153 0 0 0
931 0 3 -1.05 8.836489 13.316928 42.331817 0 0 0
947 0 3 -1.05 4.29488 10.872092 42.328383 0 0 0
957 0 3 -1.05 2.880354 8.254954 42.391153 0 0 0
961 0 3 -1.05 5.858687 13.403389 42.399747 0 0 0
966 0 3 -1.05 5.858808 8.168626 42.324008 0 0 0
979 0 3 -1.05 7.421543 10.871594 42.327873 0 0 0
990 0 3 -1.05 8.837531 8.253971 42.391044 0 0 0
999 2 2 1.575 4.370678 7.396939 43.506079 0 0 0
1039 2 2 1.575 4.368716 12.544811 43.513715 0 0 0
1041 2 2 1.575 2.879702 9.971717 43.509437 0 0 0
1054 2 1 1.05 7.348409 7.396459 43.505912 0 0 0
1068 2 2 1.575 7.348034 12.544339 43.513221 0 0 0
1077 2 1 1.05 8.836742 9.970868 43.50872 0 0 0
1138 0 3 -1.05 2.880025 11.687368 44.621717000000004 0 0 0
1158 0 3 -1.05 7.276806 14.220237 44.682065 0 0 0
1181 0 3 -1.05 5.858417 11.770317 44.679085 0 0 0
1183 0 3 -1.05 4.29763 9.072268 44.673872 0 0 0
1194 0 3 -1.05 8.836912 11.686903 44.620472 0 0 0
1197 0 3 -1.05 7.419582 9.071542 44.674479 0 0 0
1200 0 3 -1.05 4.440926 14.22009 44.682277 0 0 0
1227 1 2 1.575 5.858632 9.969101 45.301007 0 0 0
1246 2 2 1.575 8.838613 8.25706 45.909356 0 0 0
1252 2 1 1.05 2.881169 8.256706 45.909259 0 0 0
1258 2 1 1.05 5.858537 13.404118 45.916177000000005 0 0 0
1272 1 2 1.575 2.8794 11.691334 46.525943999999996 0 0 0
1290 1 2 1.575 8.837407 11.692308 46.524924 0 0 0
2288 2 2 1.575 5.873844 8.272143 53.12355 0 0 0
2290 2 2 1.575 8.853246 13.416767 53.117153 0 0 0
2298 2 1 1.05 7.364101 10.844701 53.119972 0 0 0
2323 2 2 1.575 4.383924 10.845781 53.11882 0 0 0
2335 2 2 1.575 2.895091 13.418411 53.115925 0 0 0
2381 0 3 -1.05 7.436058 14.315789 51.948788 0 0 0
2392 0 3 -1.05 7.290672 9.169004 51.954464 0 0 0
2397 0 3 -1.05 2.895503 11.701548 52.007832 0 0 0
2430 0 3 -1.05 8.853762 11.699462 52.009533 0 0 0
2450 0 3 -1.05 5.874538 11.620269 51.953476 0 0 0
2479 0 3 -1.05 4.457549 9.169974 51.953667 0 0 0
2484 0 3 -1.05 4.312244 14.316317 51.948124 0 0 0
2499 1 2 1.575 2.895369 8.274262 51.328438 0 0 0
2509 1 2 1.575 8.852686 8.271206 51.331596 0 0 0
2510 1 2 1.575 5.874304 13.419025 51.324135 0 0 0
2539 2 1 1.05 5.874404 9.986496 50.718277 0 0 0
2569 1 2 1.575 8.852902 11.698763 50.105011 0 0 0
2572 1 2 1.575 2.895938 11.701288 50.103222 0 0 0
2597 0 3 -1.05 8.850748 13.499472 49.483234 0 0 0
2606 0 3 -1.05 5.873853 8.354097 49.488235 0 0 0
2613 0 3 -1.05 2.894352 13.502308 49.482677 0 0 0
2639 0 3 -1.05 2.895745 8.273153 49.428112 0 0 0
2662 0 3 -1.05 5.872755 13.418262 49.424023 0 0 0
2671 0 3 -1.05 8.851862 8.270849 49.431171 0 0 0
2674 0 3 -1.05 4.459226 10.802374 49.488075 0 0 0
2678 0 3 -1.05 7.289448 10.801842 49.487713 0 0 0
2713 2 2 1.575 7.361863 14.27378 48.309155 0 0 0
2714 2 2 1.575 7.363214 9.126547 48.31493 0 0 0
2733 2 2 1.575 4.383442 14.274988 48.309364 0 0 0
2747 2 1 1.05 5.873461 11.7005 48.311729 0 0 0
2780 2 2 1.575 4.385504 9.128135 48.313717 0 0 0
2821 0 3 -1.05 7.436219 7.451473 47.144985 0 0 0
2835 0 3 -1.05 5.87448 9.98324 47.200047 0 0 0
2853 0 3 -1.05 7.28809 12.598822 47.138885 0 0 0
2867 0 3 -1.05 8.852396 9.900112 47.144958 0 0 0
2868 0 3 -1.05 4.456053 12.59928 47.14048 0 0 0
2872 0 3 -1.05 2.896137 9.902914 47.143291 0 0 0
2900 0 3 -1.05 4.311608 7.453154 47.143921 0 0 0
1294 2 2 1.575 8.84617 11.703175 64.509224 0 0 0
1308 2 1 1.05 2.890578 11.704255 64.508125 0 0 0
1324 0 3 -1.05 2.888954 13.44308 63.753307 0 0 0
1336 0 3 -1.05 8.846467 13.442174 63.754738 0 0 0
1340 0 3 -1.05 7.335539 10.835832 63.762154 0 0 0
1390 0 3 -1.05 4.400112 10.83625 63.759869 0 0 0
1399 0 3 -1.05 5.86726 13.421809 63.711349 0 0 0
1407 0 3 -1.05 5.868131 8.295791 63.760326 0 0 0
1429 0 3 -1.05 8.847011 8.274091 63.721146 0 0 0
1436 0 3 -1.05 2.890566 8.27527 63.717533 0 0 0
1448 2 2 1.575 7.370414 14.283568 62.816067 0 0 0
1461 2 2 1.575 7.345376 9.137481 62.823952 0 0 0
1464 2 2 1.575 4.365204 14.283793 62.814438 0 0 0
1500 2 2 1.575 5.868469 11.687881 62.819489 0 0 0
1523 2 2 1.575 4.392591 9.138349 62.821507 0 0 0
1556 0 3 -1.05 8.847954 9.869455 61.522209 0 0 0
1562 0 3 -1.05 7.252212 12.621434 61.51339 0 0 0
1570 0 3 -1.05 4.484493 12.622519 61.511749 0 0 0
1588 0 3 -1.05 7.464438 7.47473 61.521603 0 0 0
1590 0 3 -1.05 2.889947 9.870344 61.517548 0 0 0
1604 0 3 -1.05 5.868961 9.988308 61.616535 0 0 0
1644 0 3 -1.05 4.274849 7.475697 61.518761 0 0 0
1657 1 2 1.575 2.890122 11.706677 60.984875 0 0 0
1662 1 2 1.575 8.847548 11.705566 60.988331 0 0 0
1694 2 2 1.575 5.86929 13.420027 60.31686 0 0 0
1700 2 2 1.575 2.890816 8.274236 60.323246 0 0 0
1710 2 2 1.575 8.848968 8.273026 60.327415 0 0 0
1737 1 2 1.575 5.870184 9.987725 59.711235 0 0 0
1742 0 3 -1.05 4.470564 14.22777 59.113602 0 0 0
1756 0 3 -1.05 7.269743 14.227329 59.11515 0 0 0
1783 0 3 -1.05 2.891496 11.707147 59.064976 0 0 0
1816 0 3 -1.05 8.84891 11.706391 59.068302 0 0 0
1820 0 3 -1.05 4.291124 9.081812 59.121105 0 0 0
1823 0 3 -1.05 5.870257 11.805648 59.115086 0 0 0
1829 0 3 -1.05 7.449988 9.080804 59.124241 0 0 0
1865 2 1 1.05 4.375072 12.558975 57.919712 0 0 0
1886 2 1 1.05 2.892414 9.996433 57.92326 0 0 0
1892 2 1 1.05 7.366744 12.558346 57.921783 0 0 0
1913 2 2 1.575 4.387556 7.412108 57.928593 0 0 0
1932 2 1 1.05 7.354071 7.411581 57.931114 0 0 0
1939 2 2 1.575 8.850163 9.995317 57.927525 0 0 0
1959 0 3 -1.05 2.892661 8.271043 56.824753 0 0 0
1970 0 3 -1.05 8.85076 8.269878 56.828686 0 0 0
1972 0 3 -1.05 4.31108 10.885764 56.770203 0 0 0
2013 0 3 -1.05 8.850202 13.338509 56.771603 0 0 0
2036 0 3 -1.05 5.871747 13.41707 56.817806 0 0 0
2048 0 3 -1.05 2.892202 13.339939 56.769371 0 0 0
2065 0 3 -1.05 5.871833 8.193231 56.779301 0 0 0
2068 0 3 -1.05 7.433039 10.884829 56.772278 0 0 0
2090 1 2 1.575 5.872236 9.989452 56.133224 0 0 0
2112 2 2 1.575 8.851877 11.702808 55.523705 0 0 0
2120 2 1 1.05 2.893729 11.704254 55.521046 0 0 0
2133 1 2 1.575 8.851782 8.270735 54.920872 0 0 0
2145 1 2 1.575 2.894007 8.272138 54.916748 0 0 0
2154 1 2 1.575 5.873752 13.416382 54.909943 0 0 0
2182 0 3 -1.05 2.894502 10.07363 54.299801 0 0 0
2186 0 3 -1.05 4.459127 7.373835 54.307674 0 0 0
2188 0 3 -1.05 8.852315 10.071949 54.303211 0 0 0
2205 0 3 -1.05 7.438927 12.518226 54.300846 0 0 0
2213 0 3 -1.05 4.308522 12.518806 54.300209 0 0 0
2225 0 3 -1.05 7.286895 7.373397 54.309319 0 0 0
2263 0 3 -1.05 5.873524 9.989874 54.236778 0 0 0
14 2 2 1.575 8.83701 21.985498 32.132072 0 0 0
16 2 1 1.05 2.878078 21.985983 32.133634 0 0 0
24 2 2 1.575 5.861592 16.843277 32.135824 0 0 0
50 0 3 -1.05 2.88339 15.123354 32.927564000000004 0 0 0
73 0 3 -1.05 8.837868 20.247375 32.888449 0 0 0
75 0 3 -1.05 4.350127 17.708336 32.883636 0 0 0
81 0 3 -1.05 2.880424 20.246529 32.886697 0 0 0
89 0 3 -1.05 7.372277 17.70907 32.884439 0 0 0
137 0 3 -1.05 5.859741 20.266487 32.928766 0 0 0
141 0 3 -1.05 5.862007 15.102598 32.885913 0 0 0
144 0 3 -1.05 8.839434 15.123921 32.927086 0 0 0
162 2 2 1.575 2.882365 16.85483 33.822892 0 0 0
168 2 2 1.575 7.36204 19.405405 33.825841 0 0 0
184 2 2 1.575 4.356917 19.404701 33.824384 0 0 0
225 2 2 1.575 5.858087 21.999601 33.820675 0 0 0
230 2 2 1.575 8.839226 16.855015 33.824606 0 0 0
247 0 3 -1.05 2.881738 18.553526 35.028931 0 0 0
277 0 3 -1.05 8.838367 18.554993 35.031095 0 0 0
282 0 3 -1.05 7.241632 21.066908 35.128133 0 0 0
284 0 3 -1.05 4.47471 21.065573 35.128097 0 0 0
296 0 3 -1.05 7.456133 15.920403 35.127926 0 0 0
310 0 3 -1.05 4.267396 15.919366 35.127871999999996 0 0 0
321 0 3 -1.05 5.859734 18.67239 35.128207 0 0 0
365 1 2 1.575 8.836132 21.982376 35.654738 0 0 0
368 1 2 1.575 5.861297 16.834991 35.656353 0 0 0
380 1 2 1.575 2.880743 21.981516 35.656412 0 0 0
396 2 2 1.575 5.858507 20.268379 36.323771 0 0 0
400 2 2 1.575 2.883015 15.121043 36.321574 0 0 0
420 2 2 1.575 8.839994 15.12105 36.321329 0 0 0
422 1 2 1.575 2.881329 18.55427 36.934236 0 0 0
440 1 2 1.575 8.837748 18.554808 36.936346 0 0 0
455 0 3 -1.05 5.857144 21.883099 37.525672 0 0 0
459 0 3 -1.05 4.458804 19.461145 37.526041 0 0 0
469 0 3 -1.05 8.839169 16.734951 37.526151999999996 0 0 0
476 0 3 -1.05 2.882725 16.734951 37.525784 0 0 0
485 0 3 -1.05 7.258766 19.461473 37.525876 0 0 0
507 0 3 -1.05 8.835465 21.982805 37.574597 0 0 0
518 0 3 -1.05 5.860634 16.836435 37.576195 0 0 0
540 0 3 -1.05 2.879479 21.981548 37.576481 0 0 0
571 2 1 1.05 4.36221 21.129524 38.721088 0 0 0
590 2 2 1.575 7.352637 21.130768 38.719819 0 0 0
614 2 2 1.575 7.343432 15.982424 38.718997 0 0 0
620 2 1 1.05 5.859362 18.545658 38.720627 0 0 0
649 2 1 1.05 4.377442 15.982353 38.719137 0 0 0
662 0 3 -1.05 2.879712 20.348112 39.871927 0 0 0
669 0 3 -1.05 8.838737 15.120011 39.818181 0 0 0
671 0 3 -1.05 5.857966 20.270435 39.821999 0 0 0
673 0 3 -1.05 2.881686 15.120308 39.818634 0 0 0
706 0 3 -1.05 4.440866 17.654707 39.871525 0 0 0
709 0 3 -1.05 7.278501 17.65517 39.871427 0 0 0
744 0 3 -1.05 5.860286 15.201231 39.868497 0 0 0
766 0 3 -1.05 8.835885 20.350077 39.870004 0 0 0
783 1 2 1.575 2.881116 18.550083 40.51235 0 0 0
786 1 2 1.575 8.837957 18.552025 40.510956 0 0 0
811 2 2 1.575 2.878871 21.984013 41.120108 0 0 0
826 2 2 1.575 8.835186 21.986095 41.118239 0 0 0
834 2 2 1.575 5.859377 16.836952 41.118998 0 0 0
842 1 2 1.575 8.837406 15.122346 41.72594 0 0 0
843 1 2 1.575 5.857456 20.271206 41.729652 0 0 0
847 1 2 1.575 2.880802 15.122067 41.726434 0 0 0
878 0 3 -1.05 4.293298 21.169813 42.340873 0 0 0
909 0 3 -1.05 2.88046 18.55121 42.408592999999996 0 0 0
913 0 3 -1.05 4.444329 16.021502 42.338218 0 0 0
917 0 3 -1.05 5.858363 18.467997 42.341316 0 0 0
932 0 3 -1.05 7.274179 16.022121 42.338424 0 0 0
936 0 3 -1.05 8.836807 18.553606 42.407227 0 0 0
942 0 3 -1.05 7.421617 21.170614 42.339944 0 0 0
1007 2 1 1.05 2.880193 20.269432 43.523576 0 0 0
1013 2 2 1.575 4.36997 17.694073 43.523079 0 0 0
1050 2 1 1.05 8.836367 20.271482 43.522231 0 0 0
1051 2 1 1.05 5.859188 15.12042 43.517860999999996 0 0 0
1060 2 1 1.05 7.347292 17.695898 43.522137 0 0 0
1082 0 3 -1.05 2.880326 21.987051 44.632277 0 0 0
1112 0 3 -1.05 8.837043 21.988394 44.631324 0 0 0
1131 0 3 -1.05 2.880658 16.919161 44.688375 0 0 0
1145 0 3 -1.05 7.419804 19.371851 44.689637000000005 0 0 0
1150 0 3 -1.05 8.837499 16.921631 44.68734 0 0 0
1162 0 3 -1.05 4.297977 19.370422 44.689518 0 0 0
1164 0 3 -1.05 5.859242 16.836771 44.630162999999996 0 0 0
1191 0 3 -1.05 5.858127 22.069929 44.6879 0 0 0
1214 1 2 1.575 5.85851 20.269962 45.314164000000005 0 0 0
1218 1 2 1.575 8.836765 15.119745 45.308018000000004 0 0 0
1221 1 2 1.575 2.880375 15.117499 45.309584 0 0 0
1236 2 2 1.575 8.837133 18.555969 45.923735 0 0 0
1249 2 2 1.575 2.881315 18.553974 45.924187 0 0 0
1267 1 2 1.575 8.838355 21.990013 46.535838 0 0 0
1277 1 2 1.575 2.881613 21.989902 46.536507 0 0 0
1289 1 2 1.575 5.859394 16.840187 46.534423000000004 0 0 0
2281 2 1 1.05 7.362022 15.991477 53.11459 0 0 0
2286 2 2 1.575 5.871112 18.565229 53.114777 0 0 0
2296 2 1 1.05 7.359234 21.140867 53.116188 0 0 0
2302 2 2 1.575 4.380047 21.141586 53.115005 0 0 0
2307 2 1 1.05 4.384331 15.992143 53.114597 0 0 0
2378 0 3 -1.05 5.873085 16.848434 52.005066 0 0 0
2379 0 3 -1.05 8.851327 16.766766 51.94841 0 0 0
2382 0 3 -1.05 7.288126 19.465202 51.948597 0 0 0
2383 0 3 -1.05 5.870078 21.916052 51.950535 0 0 0
2395 0 3 -1.05 8.847809 21.998335 52.008133 0 0 0
2399 0 3 -1.05 2.894886 16.76753 51.949211 0 0 0
2416 0 3 -1.05 2.89058 21.999025 52.006302 0 0 0
2440 0 3 -1.05 4.453665 19.465273 51.948704 0 0 0
2493 1 2 1.575 8.849364 18.567308 51.323284 0 0 0
2506 1 2 1.575 2.892461 18.567636 51.323532 0 0 0
2522 2 2 1.575 8.851701 15.132429 50.713051 0 0 0
2528 2 1 1.05 5.870607 20.282228 50.714096 0 0 0
2532 2 1 1.05 2.895458 15.134418 50.713371 0 0 0
2551 1 2 1.575 2.890239 21.996572 50.10207 0 0 0
2552 1 2 1.575 5.873516 16.847744 50.100746 0 0 0
2560 1 2 1.575 8.848143 21.996168 50.103924 0 0 0
2583 0 3 -1.05 7.286202 21.097584 49.48497 0 0 0
2590 0 3 -1.05 5.871317 18.649651 49.483311 0 0 0
2610 0 3 -1.05 4.453862 21.097824 49.485928 0 0 0
2611 0 3 -1.05 8.849524 18.564669 49.42321 0 0 0
2629 0 3 -1.05 7.435688 15.948015 49.483715 0 0 0
2633 0 3 -1.05 4.310431 15.949891 49.483013 0 0 0
2640 0 3 -1.05 2.892594 18.566437 49.423489 0 0 0
2701 2 1 1.05 8.850054 16.846842 48.308708 0 0 0
2703 2 2 1.575 7.359883 19.422899 48.310104 0 0 0
2705 2 2 1.575 5.868867 21.997862 48.31287 0 0 0
2763 2 1 1.05 4.381731 19.42346 48.310509 0 0 0
2776 2 2 1.575 2.894027 16.849073 48.309296 0 0 0
2794 0 3 -1.05 5.870299 20.280931 47.198578 0 0 0
2795 0 3 -1.05 8.85061 15.129148 47.195698 0 0 0
2796 0 3 -1.05 5.872228 15.048201 47.1395 0 0 0
2802 0 3 -1.05 7.432392 17.74688 47.140335 0 0 0
2808 0 3 -1.05 2.892009 20.198345 47.141579 0 0 0
2809 0 3 -1.05 8.848805 20.196331 47.140606 0 0 0
2826 0 3 -1.05 2.894416 15.132302 47.195961 0 0 0
2833 0 3 -1.05 4.308993 17.748922 47.138935 0 0 0
1292 2 2 1.575 8.848641 21.990849 64.502762 0 0 0
1313 2 2 1.575 2.891873 21.991911 64.50032 0 0 0
1315 2 1 1.05 5.866773 16.848017 64.500801 0 0 0
1325 0 3 -1.05 7.337786 21.126547 63.752399 0 0 0
1367 0 3 -1.05 4.356109 15.981288 63.753513 0 0 0
1368 0 3 -1.05 8.847692 18.566948 63.706959 0 0 0
1386 0 3 -1.05 7.378153 15.981302 63.754261 0 0 0
1401 0 3 -1.05 2.89121 18.568359 63.705505 0 0 0
1402 0 3 -1.05 4.402311 21.126556 63.750748 0 0 0
1433 0 3 -1.05 5.869327 18.587357 63.746979 0 0 0
1442 2 2 1.575 8.846178 16.833738 62.814137 0 0 0
1480 2 2 1.575 2.889509 16.83534 62.81295 0 0 0
1483 2 2 1.575 7.34566 19.43013 62.811043 0 0 0
1486 2 2 1.575 5.87053 21.981005 62.813328 0 0 0
1526 2 2 1.575 4.393776 19.430567 62.809296 0 0 0
1538 0 3 -1.05 8.846888 15.13357 61.610626 0 0 0
1567 0 3 -1.05 2.889559 15.134452 61.608898 0 0 0
1571 0 3 -1.05 5.871393 20.281664 61.60627 0 0 0
1586 0 3 -1.05 8.848371 20.162062 61.508461 0 0 0
1595 0 3 -1.05 5.868175 15.016234 61.511246 0 0 0
1607 0 3 -1.05 4.275056 17.769098 61.506641 0 0 0
1608 0 3 -1.05 7.464732 17.767534 61.507137 0 0 0
1627 0 3 -1.05 2.891792 20.163816 61.506802 0 0 0
1654 1 2 1.575 8.848239 22.000336 60.981941 0 0 0
1661 1 2 1.575 5.869525 16.852741 60.980103 0 0 0
1663 1 2 1.575 2.890828 22.002268 60.980984 0 0 0
1687 2 2 1.575 2.891476 18.567284 60.311432 0 0 0
1699 2 2 1.575 8.848452 18.566425 60.31263 0 0 0
1713 1 2 1.575 8.848533 15.133518 59.705235 0 0 0
1717 1 2 1.575 2.891708 15.134257 59.703499 0 0 0
1734 1 2 1.575 5.870669 20.281534 59.70113 0 0 0
1758 0 3 -1.05 8.847624 21.999531 59.062183 0 0 0
1762 0 3 -1.05 5.868752 22.101891 59.111973 0 0 0
1763 0 3 -1.05 4.292027 19.375154 59.110249 0 0 0
1780 0 3 -1.05 5.87025 16.852287 59.060673 0 0 0
1791 0 3 -1.05 8.849292 16.95188 59.110222 0 0 0
1811 0 3 -1.05 7.448901 19.373857 59.110851 0 0 0
1826 0 3 -1.05 2.889917 22.001923 59.060917 0 0 0
1838 0 3 -1.05 2.892231 16.952776 59.109268 0 0 0
1862 2 2 1.575 5.870967 15.14211 57.917839 0 0 0
1874 2 1 1.05 2.891161 20.291649 57.916405 0 0 0
1875 2 2 1.575 8.848387 20.289806 57.916702 0 0 0
1909 2 1 1.05 4.387716 17.705435 57.916161 0 0 0
1937 2 1 1.05 7.353981 17.704775 57.916138 0 0 0
1952 0 3 -1.05 2.892869 18.566467 56.814499 0 0 0
1964 0 3 -1.05 8.849305 18.565002 56.815205 0 0 0
1966 0 3 -1.05 5.870825 18.486065 56.766285 0 0 0
1974 0 3 -1.05 7.42865 21.181154 56.766914 0 0 0
1975 0 3 -1.05 4.453384 16.032524 56.76516 0 0 0
1983 0 3 -1.05 7.289865 16.031607 56.765568 0 0 0
1998 0 3 -1.05 4.309839 21.182449 56.765667 0 0 0
2071 1 2 1.575 8.850236 15.135342 56.126976 0 0 0
2073 1 2 1.575 5.869153 20.284538 56.12674 0 0 0
2099 1 2 1.575 2.893017 15.137112 56.126232 0 0 0
2101 2 2 1.575 5.871673 16.849812 55.517414 0 0 0
2102 2 2 1.575 2.890677 22.00075 55.518131 0 0 0
2105 2 1 1.05 8.847846 21.999212 55.519558 0 0 0
2138 1 2 1.575 2.893665 18.565912 54.906773 0 0 0
2147 1 2 1.575 8.850015 18.564226 54.907574 0 0 0
2161 0 3 -1.05 7.28597 17.665087 54.296818 0 0 0
2162 0 3 -1.05 4.45751 17.665621 54.296776 0 0 0
2169 0 3 -1.05 5.872956 15.218909 54.295712 0 0 0
2174 0 3 -1.05 8.848238 20.36797 54.29707 0 0 0
2183 0 3 -1.05 8.85178 15.134823 54.230453 0 0 0
2197 0 3 -1.05 5.869459 20.282982 54.230274 0 0 0
2198 0 3 -1.05 2.890985 20.369461 54.295944 0 0 0
2271 0 3 -1.05 2.894558 15.136376 54.229942 0 0 0
28 2 1 1.05 5.859601 27.129711 32.12445 0 0 0
64 0 3 -1.05 4.39014 22.8517 32.879866 0 0 0
66 0 3 -1.05 7.370143 27.998701 32.870286 0 0 0
71 0 3 -1.05 4.348742 27.996811 32.87218 0 0 0
87 0 3 -1.05 7.3257 22.851946 32.879548 0 0 0
130 0 3 -1.05 8.836092 25.411459 32.921616 0 0 0
149 0 3 -1.05 5.857244 25.390919 32.879042 0 0 0
150 0 3 -1.05 2.878438 25.410919 32.923491 0 0 0
154 2 2 1.575 7.361678 29.69677 33.808704 0 0 0
174 2 2 1.575 2.880393 27.14496 33.813427 0 0 0
178 2 2 1.575 4.357516 29.695288 33.809654 0 0 0
215 2 2 1.575 7.333368 24.549999 33.818072 0 0 0
231 2 2 1.575 8.836835 27.145742 33.81207 0 0 0
240 2 2 1.575 4.381762 24.549538 33.818383 0 0 0
266 0 3 -1.05 5.859503 28.964649 35.113626 0 0 0
269 0 3 -1.05 8.837163 28.847088 35.014783 0 0 0
272 0 3 -1.05 5.857382 23.700415 35.023699 0 0 0
292 0 3 -1.05 2.880613 28.845247 35.016261 0 0 0
293 0 3 -1.05 7.451714 26.212667 35.119156000000004 0 0 0
301 0 3 -1.05 8.835595 23.818708 35.122469 0 0 0
319 0 3 -1.05 4.263273 26.212051 35.121239 0 0 0
332 0 3 -1.05 2.880676 23.817938 35.124746 0 0 0
375 1 2 1.575 5.857635 27.12863 35.647169 0 0 0
414 2 2 1.575 8.834709 25.415491 36.316137 0 0 0
417 2 2 1.575 2.879614 25.414371 36.318448000000004 0 0 0
426 1 2 1.575 5.856384 23.700754 36.929034 0 0 0
427 1 1 1.05 2.880787 28.846479 36.921896000000004 0 0 0
433 1 2 1.575 8.83689 28.84775 36.920378 0 0 0
451 0 3 -1.05 4.278617 24.607199 37.521345 0 0 0
510 0 3 -1.05 4.459517 29.753984 37.510893 0 0 0
522 0 3 -1.05 7.258511 29.754215 37.511268 0 0 0
529 0 3 -1.05 8.834273 27.030071 37.517331 0 0 0
554 0 3 -1.05 5.857025 27.128906 37.567104 0 0 0
564 0 3 -1.05 7.435081 24.607925 37.518494000000004 0 0 0