LAMMPS data file via write_data, version 17 Feb 2022, timestep = 8

1872 atoms
10 atom types
0 bonds
6 bond types
0 angles
6 angle types
0 dihedrals
2 dihedral types
0 impropers
2 improper types

0 25.44 xlo xhi
0 25.44 ylo yhi
-24.4984 29.2552 zlo zhi

Masses

1 12.011
2 1.008
3 15.9994
4 15.9994
5 1.008
6 55.845
7 55.845
8 15.9994
9 15.9994
10 1.008

Pair Coeffs # lj/cut/coul/long

1 0.0988 3.31521
2 0.0161 2.4473
3 0.1463 3.04812
4 0.093 3.24287
5 0.0047 0.537925
6 9.0298e-07 4.9062
7 9.0298e-07 4.9062
8 0.1554 3.16554
9 0.1554 3.16554
10 0 0

Bond Coeffs # harmonic

1 361.8 1.105
2 652.57 1.218
3 383.13 1.351
4 563.51 0.973
5 554.135 1
6 0 2.08

Angle Coeffs # harmonic

1 51.617 106.55
2 65.93 123.65
3 65.262 109.49
4 115.745 122.1
5 118.817 130.25
6 30 109.47

Dihedral Coeffs # fourier

1 1 2.3 2 180
2 2 2.3 2 180 1.9 1 0

Improper Coeffs # cvff

1 10.5 -1 2
2 10.5 -1 2

Atoms # full

122 2 7 1.575 2.390415503389818 2.3904155033898187 -12.4157008959635 0 0 0
123 2 7 1.575 6.630415296530944 6.630415296530944 -12.415701171591062 0 0 0
133 2 7 1.575 0.24641846506298307 0.24641846506298484 -12.415701121789594 0 0 0
136 2 7 1.575 4.486418295879497 4.486418295879498 -12.415700681109078 0 0 0
139 0 8 -1.05 4.363692477465716 2.513141225614583 -12.438733346917074 0 0 0
140 0 8 -1.05 4.655406719882282 6.461427072031243 -12.328144137015094 0 0 0
150 0 8 -1.05 2.2214270619459944 0.41540679295437943 -12.3281440044033 0 0 0
155 0 8 -1.05 2.5131412256145853 4.363692477465714 -12.438733346917074 0 0 0
156 0 8 -1.05 6.461427072031243 4.655406719882282 -12.328144137015093 0 0 0
163 0 8 -1.05 0.4154067929543804 2.221427061945995 -12.3281440044033 0 0 0
1397 0 8 -1.05 6.753141354310107 0.1236927267516153 -12.438732640713239 0 0 0
580 0 8 -1.05 0.12369272675161486 6.753141354310107 -12.438732640713239 0 0 0
114 1 7 1.575 7.678417164433588 7.678417164433592 -9.26050556070698 0 0 0
115 1 7 1.575 5.558416755442236 1.3184170993134567 -11.535583296001175 0 0 0
117 1 7 1.575 1.3184170993134552 5.558416755442238 -11.535583296001173 0 0 0
120 1 7 1.575 3.4384172391922387 3.438417239192243 -9.26050473554879 0 0 0
124 2 7 1.575 6.65063886905836 4.466194389976768 -10.365169220994186 0 0 0
127 2 7 1.575 0.22619451892462497 2.4106396396155025 -10.365169395562104 0 0 0
130 2 7 1.575 4.466194389976766 6.650638869058361 -10.365169220994186 0 0 0
131 2 7 1.575 2.4106396396155008 0.2261945189246262 -10.365169395562106 0 0 0
144 0 8 -1.05 2.309844463165026 2.3098444631650246 -10.37016134689045 0 0 0
148 0 8 -1.05 4.566989568776658 4.566989568776658 -10.370161613855647 0 0 0
151 0 8 -1.05 2.441146550724498 6.681147015346854 -10.363556406865916 0 0 0
154 0 8 -1.05 0.326989262084186 0.32698926208418494 -10.37016133748683 0 0 0
159 0 8 -1.05 6.681147015346854 2.441146550724497 -10.363556406865916 0 0 0
168 0 8 -1.05 6.54984460732654 6.54984460732654 -10.370161622328753 0 0 0
1410 0 8 -1.05 4.435687221898112 0.19568712804747435 -10.363556509608882 0 0 0
557 0 8 -1.05 0.19568712804747526 4.435687221898112 -10.363556509608882 0 0 0
164 0 8 -1.05 8.60369254909328 6.7531411922579885 -12.43873250206934 0 0 0
330 2 7 1.575 10.870415375366385 2.390415584429826 -12.415700847980833 0 0 0
341 2 7 1.575 8.726418608007078 0.246418369922226 -12.415701048072876 0 0 0
358 0 8 -1.05 10.70142712678501 0.4154067928347955 -12.328144125098554 0 0 0
363 0 8 -1.05 10.993141426981683 4.363692613144305 -12.43873325655477 0 0 0
371 0 8 -1.05 8.895406737269628 2.2214270604810933 -12.32814413186613 0 0 0
141 0 8 -1.05 8.675686666232663 4.4356871334034 -10.363556513637246 0 0 0
325 1 7 1.575 9.798417115345462 5.558416756965273 -11.535582894930346 0 0 0
328 1 7 1.575 11.918416587264604 3.438417042314153 -9.260504920078619 0 0 0
335 2 7 1.575 8.706195168559939 2.4106396531866428 -10.365169229417821 0 0 0
339 2 7 1.575 10.890638995621066 0.22619447843687054 -10.365169255965656 0 0 0
352 0 8 -1.05 10.78984454048797 2.3098442240631187 -10.370161559031706 0 0 0
359 0 8 -1.05 10.921146961169853 6.6811471165693455 -10.363556441424299 0 0 0
362 0 8 -1.05 8.80698912416821 0.32698949015445034 -10.370161563994746 0 0 0
331 2 7 1.575 15.110415620391851 6.6304151889371745 -12.41570104248609 0 0 0
344 2 7 1.575 12.966418479319762 4.486418291361111 -12.41570089782816 0 0 0
347 0 8 -1.05 12.84369252121452 2.5131412280570817 -12.438733075593676 0 0 0
348 0 8 -1.05 13.135406782537947 6.461427069953826 -12.328144099813665 0 0 0
364 0 8 -1.05 14.941427086218065 4.655406710185886 -12.328144074078393 0 0 0
1605 0 8 -1.05 15.233141204457462 0.12369255738456818 -12.438733033853042 0 0 0
322 1 7 1.575 16.158417196223233 7.678417198679242 -9.260505172583924 0 0 0
323 1 7 1.575 14.0384169453832 1.3184169457570531 -11.53558354334756 0 0 0
332 2 7 1.575 15.130639620474252 4.4661944485545355 -10.365169321803183 0 0 0
338 2 7 1.575 12.946194495204331 6.650638817480879 -10.365169322866521 0 0 0
356 0 8 -1.05 13.046989266461642 4.5669895707698345 -10.370161491542675 0 0 0
367 0 8 -1.05 15.16114651216892 2.441146526845297 -10.36355651086983 0 0 0
376 0 8 -1.05 15.029844205979098 6.549844853823879 -10.370161495942133 0 0 0
1618 0 8 -1.05 12.91568719885683 0.19568719957906844 -10.363556386080809 0 0 0
372 0 8 -1.05 17.083692686711352 6.753141366304511 -12.438732913379063 0 0 0
538 2 7 1.575 19.35041516425026 2.3904155933634375 -12.41570104216591 0 0 0
539 2 7 1.575 23.59041547745491 6.630415301998526 -12.415700980280292 0 0 0
549 2 7 1.575 17.20641827535819 0.24641847192086713 -12.415700886888846 0 0 0
552 2 7 1.575 21.446418593519592 4.486418175875683 -12.415700853418551 0 0 0
555 0 8 -1.05 21.3236923204501 2.5131410688910854 -12.438732934813165 0 0 0
556 0 8 -1.05 21.615406730044313 6.461427074827678 -12.328144205855155 0 0 0
566 0 8 -1.05 19.181427056167127 0.41540680812948344 -12.328144091123917 0 0 0
571 0 8 -1.05 19.473141383719266 4.363692654053946 -12.438732935764659 0 0 0
572 0 8 -1.05 23.42142715126784 4.655406732901139 -12.32814418892022 0 0 0
579 0 8 -1.05 17.37540671589314 2.221427090534245 -12.328144069496714 0 0 0
1813 0 8 -1.05 23.71314139510383 0.12369269236103568 -12.43873295670249 0 0 0
349 0 8 -1.05 17.15568711913057 4.43568712123761 -10.363556647292267 0 0 0
530 1 7 1.575 24.638416557729617 7.678416976585568 -9.260505331162745 0 0 0
531 1 7 1.575 22.518416973233894 1.318416927041204 -11.535583137394113 0 0 0
533 1 7 1.575 18.278416910221623 5.558416931559719 -11.53558305016278 0 0 0
536 1 7 1.575 20.3984171961663 3.438417202426277 -9.260505130621734 0 0 0
540 2 7 1.575 23.61063895844629 4.466194432189925 -10.365169139015688 0 0 0
543 2 7 1.575 17.186194446900593 2.4106396475878227 -10.36516928401835 0 0 0
546 2 7 1.575 21.42619516588292 6.65063887758748 -10.36516915281141 0 0 0
547 2 7 1.575 19.370638862417792 0.22619448208222534 -10.365169313802053 0 0 0
560 0 8 -1.05 19.269844868797072 2.3098442243255346 -10.370161490772203 0 0 0
564 0 8 -1.05 21.526989137300717 4.566989784778494 -10.370161710888619 0 0 0
567 0 8 -1.05 19.401147034945925 6.681147051078889 -10.363556294401393 0 0 0
570 0 8 -1.05 17.286989545568826 0.32698925797822626 -10.370161451273079 0 0 0
575 0 8 -1.05 23.641146952614015 2.44114662094134 -10.363556550279258 0 0 0
584 0 8 -1.05 23.509844282789246 6.549844635974336 -10.370161705169089 0 0 0
1826 0 8 -1.05 21.395686759423633 0.19568711477080125 -10.363556372426885 0 0 0
149 0 8 -1.05 6.753141192257989 8.603692549093278 -12.43873250206934 0 0 0
746 2 7 1.575 2.3904155844298245 10.870415375366385 -12.415700847980832 0 0 0
757 2 7 1.575 0.24641836992222593 8.726418608007078 -12.415701048072876 0 0 0
763 0 8 -1.05 4.3636926131443055 10.993141426981683 -12.43873325655477 0 0 0
774 0 8 -1.05 2.221427060481094 8.89540673726963 -12.328144131866132 0 0 0
787 0 8 -1.05 0.41540679283479587 10.70142712678501 -12.328144125098556 0 0 0
162 0 8 -1.05 4.435687133403401 8.675686666232664 -10.363556513637246 0 0 0
739 1 7 1.575 5.558416756965272 9.798417115345462 -11.535582894930345 0 0 0
744 1 7 1.575 3.4384170423141507 11.918416587264602 -9.260504920078617 0 0 0
751 2 7 1.575 0.2261944784368722 10.890638995621066 -10.365169255965652 0 0 0
755 2 7 1.575 2.4106396531866423 8.70619516855994 -10.365169229417818 0 0 0
768 0 8 -1.05 2.3098442240631196 10.78984454048797 -10.370161559031708 0 0 0
778 0 8 -1.05 0.32698949015445117 8.80698912416821 -10.370161563994747 0 0 0
783 0 8 -1.05 6.681147116569344 10.921146961169855 -10.363556441424299 0 0 0
747 2 7 1.575 6.630415188937174 15.110415620391851 -12.41570104248609 0 0 0
760 2 7 1.575 4.486418291361112 12.966418479319762 -12.415700897828158 0 0 0
764 0 8 -1.05 4.655406710185887 14.941427086218065 -12.328144074078393 0 0 0
779 0 8 -1.05 2.513141228057081 12.843692521214521 -12.438733075593678 0 0 0
780 0 8 -1.05 6.461427069953826 13.135406782537949 -12.328144099813667 0 0 0
1204 0 8 -1.05 0.12369255738456719 15.233141204457464 -12.438733033853044 0 0 0
738 1 7 1.575 7.67841719867924 16.15841719622323 -9.260505172583922 0 0 0
741 1 7 1.575 1.3184169457570547 14.038416945383197 -11.53558354334756 0 0 0
748 2 7 1.575 6.650638817480879 12.946194495204331 -10.365169322866517 0 0 0
754 2 7 1.575 4.466194448554535 15.130639620474248 -10.365169321803181 0 0 0
772 0 8 -1.05 4.566989570769836 13.046989266461644 -10.370161491542676 0 0 0
775 0 8 -1.05 2.4411465268452974 15.161146512168921 -10.36355651086983 0 0 0
792 0 8 -1.05 6.54984485382388 15.0298442059791 -10.370161495942133 0 0 0
1181 0 8 -1.05 0.1956871995790685 12.915687198856832 -10.363556386080809 0 0 0
954 2 7 1.575 10.870415460356078 10.870415460356078 -12.415700742175448 0 0 0
965 2 7 1.575 8.726418507753525 8.726418507753525 -12.415700981931202 0 0 0
982 0 8 -1.05 10.701427122769271 8.895406730797475 -12.328144215798135 0 0 0
995 0 8 -1.05 8.895406730797474 10.701427122769271 -12.328144215798137 0 0 0
952 1 7 1.575 11.918416384772469 11.91841638477247 -9.260505086671577 0 0 0
959 2 7 1.575 8.706195148972876 10.890639015859652 -10.36516909833672 0 0 0
963 2 7 1.575 10.890639015859652 8.706195148972876 -10.36516909833672 0 0 0
976 0 8 -1.05 10.78984431915884 10.78984431915884 -10.370161787907001 0 0 0
986 0 8 -1.05 8.806989347949823 8.806989347949823 -10.37016176535074 0 0 0
788 0 8 -1.05 8.603692364019082 15.23314105247777 -12.438732895799767 0 0 0
987 0 8 -1.05 10.993141418374108 12.84369266175111 -12.438732997614451 0 0 0
765 0 8 -1.05 8.675686764230502 12.91568709605537 -10.363556385261287 0 0 0
949 1 7 1.575 9.798416945139271 14.038416942583245 -11.535583128325081 0 0 0
983 0 8 -1.05 10.921146961445631 15.161146617535296 -10.363556546737172 0 0 0
357 0 8 -1.05 15.23314105247777 8.603692364019082 -12.438732895799767 0 0 0
971 0 8 -1.05 12.84369266175111 10.99314141837411 -12.438732997614451 0 0 0
370 0 8 -1.05 12.915687096055368 8.675686764230502 -10.363556385261287 0 0 0
947 1 7 1.575 14.038416942583247 9.798416945139271 -11.53558312832508 0 0 0
991 0 8 -1.05 15.161146617535296 10.921146961445631 -10.363556546737174 0 0 0
955 2 7 1.575 15.110415491811716 15.110415491811716 -12.415700906868155 0 0 0
968 2 7 1.575 12.96641846902813 12.96641846902813 -12.415701081195417 0 0 0
972 0 8 -1.05 13.135406784039725 14.94142708298643 -12.328144021560396 0 0 0
988 0 8 -1.05 14.941427082986428 13.135406784039727 -12.328144021560394 0 0 0
946 1 7 1.575 16.158417244925452 16.15841724492545 -9.260504761398936 0 0 0
956 2 7 1.575 15.130639630145565 12.946194518883345 -10.365169402326053 0 0 0
962 2 7 1.575 12.946194518883345 15.130639630145563 -10.365169402326051 0 0 0
980 0 8 -1.05 13.046989259202814 13.046989259202814 -10.370161379398771 0 0 0
1000 0 8 -1.05 15.029844436704254 15.029844436704256 -10.370161375716306 0 0 0
565 0 8 -1.05 23.7131412324866 8.603692534215588 -12.438732831029226 0 0 0
1162 2 7 1.575 19.350415305248646 10.870415500708877 -12.415700972961735 0 0 0
1173 2 7 1.575 17.20641818183728 8.726418600696148 -12.41570084903598 0 0 0
1179 0 8 -1.05 21.323692485639132 10.993141258356758 -12.438732860965107 0 0 0
1190 0 8 -1.05 19.181427054239258 8.895406717612994 -12.328144206965716 0 0 0
1203 0 8 -1.05 17.375406743405396 10.701427154573155 -12.328144168373806 0 0 0
578 0 8 -1.05 21.39568665514824 8.67568665389908 -10.363556418025434 0 0 0
1155 1 7 1.575 22.51841695011752 9.798416925749224 -11.535582730756396 0 0 0
1160 1 7 1.575 20.398416989366257 11.918416547430697 -9.260505317764407 0 0 0
1167 2 7 1.575 17.186194424170235 10.890638994328764 -10.365169127257207 0 0 0
1171 2 7 1.575 19.37063887285087 8.706195147071355 -10.365169137981566 0 0 0
1184 0 8 -1.05 19.269844658137952 10.789844280060468 -10.370161693587537 0 0 0
1194 0 8 -1.05 17.2869897935226 8.806989126925473 -10.3701616711469 0 0 0
1199 0 8 -1.05 23.641147049128218 10.921147036516036 -10.363556596976732 0 0 0
996 0 8 -1.05 17.083692490620145 15.23314122138242 -12.438733303692972 0 0 0
1163 2 7 1.575 23.590415372443022 15.110415583810042 -12.41570080703367 0 0 0
1176 2 7 1.575 21.44641858125789 12.966418349841616 -12.415701058463858 0 0 0
1180 0 8 -1.05 21.615406716799388 14.941427076271747 -12.328144151729601 0 0 0
1195 0 8 -1.05 19.473141364125667 12.84369270052998 -12.438732658584719 0 0 0
1196 0 8 -1.05 23.42142714115899 13.13540679293452 -12.32814413009545 0 0 0
973 0 8 -1.05 17.155687221076406 12.915687103179069 -10.363556501118108 0 0 0
1154 1 7 1.575 24.638416566242938 16.158417052634757 -9.260504917977322 0 0 0
1157 1 7 1.575 18.278416760115306 14.038417114870915 -11.535583303177262 0 0 0
1164 2 7 1.575 23.61063899244928 12.946194483057585 -10.3651692286945 0 0 0
1170 2 7 1.575 21.426195183983285 15.130639651569073 -10.365169245321662 0 0 0
1188 0 8 -1.05 21.526989130167284 13.046989477899144 -10.370161595536603 0 0 0
1191 0 8 -1.05 19.401147017912226 15.161146533899219 -10.363556411997811 0 0 0
1208 0 8 -1.05 23.509844492604287 15.029844217423511 -10.370161587751188 0 0 0
773 0 8 -1.05 6.7531413663045115 17.083692686711355 -12.438732913379063 0 0 0
1370 2 7 1.575 2.390415593363437 19.350415164250258 -12.41570104216591 0 0 0
1371 2 7 1.575 6.630415301998525 23.59041547745491 -12.415700980280294 0 0 0
1381 2 7 1.575 0.24641847192086705 17.20641827535819 -12.415700886888846 0 0 0
1384 2 7 1.575 4.486418175875682 21.446418593519592 -12.415700853418551 0 0 0
1387 0 8 -1.05 4.363692654053946 19.473141383719266 -12.438732935764659 0 0 0
1388 0 8 -1.05 4.655406732901139 23.421427151267835 -12.32814418892022 0 0 0
1398 0 8 -1.05 2.221427090534245 17.375406715893135 -12.328144069496714 0 0 0
1403 0 8 -1.05 2.513141068891089 21.323692320450093 -12.438732934813167 0 0 0
1404 0 8 -1.05 6.461427074827679 21.615406730044313 -12.328144205855157 0 0 0
1411 0 8 -1.05 0.41540680812948416 19.181427056167127 -12.328144091123919 0 0 0
1828 0 8 -1.05 0.12369269236103786 23.713141395103825 -12.438732956702488 0 0 0
786 0 8 -1.05 4.435687121237612 17.15568711913057 -10.363556647292267 0 0 0
1362 1 7 1.575 7.678416976585569 24.63841655772962 -9.260505331162747 0 0 0
1363 1 7 1.575 5.558416931559719 18.278416910221623 -11.535583050162778 0 0 0
1365 1 7 1.575 1.318416927041199 22.518416973233897 -11.535583137394115 0 0 0
1368 1 7 1.575 3.438417202426278 20.398417196166296 -9.26050513062173 0 0 0
1372 2 7 1.575 6.65063887758748 21.42619516588292 -10.365169152811408 0 0 0
1375 2 7 1.575 0.22619448208222487 19.370638862417792 -10.365169313802053 0 0 0
1378 2 7 1.575 4.4661944321899245 23.610638958446287 -10.365169139015688 0 0 0
1379 2 7 1.575 2.4106396475878227 17.18619444690059 -10.365169284018348 0 0 0
1392 0 8 -1.05 2.3098442243255346 19.269844868797072 -10.370161490772203 0 0 0
1396 0 8 -1.05 4.566989784778496 21.526989137300717 -10.370161710888619 0 0 0
1399 0 8 -1.05 2.4411466209413413 23.64114695261401 -10.36355655027926 0 0 0
1402 0 8 -1.05 0.32698925797822864 17.28698954556883 -10.370161451273082 0 0 0
1407 0 8 -1.05 6.68114705107889 19.40114703494593 -10.363556294401393 0 0 0
1416 0 8 -1.05 6.549844635974336 23.509844282789246 -10.370161705169089 0 0 0
1805 0 8 -1.05 0.1956871147708028 21.395686759423633 -10.363556372426887 0 0 0
1412 0 8 -1.05 8.603692534215588 23.7131412324866 -12.438732831029224 0 0 0
1578 2 7 1.575 10.870415500708877 19.350415305248646 -12.415700972961735 0 0 0
1589 2 7 1.575 8.726418600696148 17.20641818183728 -12.415700849035982 0 0 0
1606 0 8 -1.05 10.701427154573157 17.375406743405396 -12.328144168373806 0 0 0
1611 0 8 -1.05 10.993141258356756 21.323692485639132 -12.438732860965105 0 0 0
1619 0 8 -1.05 8.895406717612996 19.181427054239258 -12.328144206965714 0 0 0
1389 0 8 -1.05 8.67568665389908 21.39568665514824 -10.363556418025434 0 0 0
1573 1 7 1.575 9.798416925749224 22.51841695011752 -11.535582730756397 0 0 0
1576 1 7 1.575 11.9184165474307 20.398416989366254 -9.260505317764409 0 0 0
1583 2 7 1.575 8.706195147071355 19.37063887285087 -10.365169137981564 0 0 0
1587 2 7 1.575 10.890638994328764 17.186194424170232 -10.365169127257207 0 0 0
1600 0 8 -1.05 10.789844280060468 19.26984465813795 -10.370161693587535 0 0 0
1607 0 8 -1.05 10.921147036516036 23.64114704912822 -10.36355659697673 0 0 0
1610 0 8 -1.05 8.806989126925474 17.286989793522604 -10.370161671146901 0 0 0
981 0 8 -1.05 15.233141221382418 17.083692490620145 -12.43873330369297 0 0 0
1579 2 7 1.575 15.110415583810045 23.59041537244302 -12.41570080703367 0 0 0
1592 2 7 1.575 12.966418349841618 21.44641858125789 -12.41570105846386 0 0 0
1595 0 8 -1.05 12.843692700529978 19.473141364125667 -12.438732658584719 0 0 0
1596 0 8 -1.05 13.135406792934518 23.42142714115899 -12.32814413009545 0 0 0
1612 0 8 -1.05 14.941427076271747 21.615406716799388 -12.328144151729601 0 0 0
994 0 8 -1.05 12.915687103179067 17.155687221076406 -10.363556501118108 0 0 0
1570 1 7 1.575 16.15841705263476 24.638416566242938 -9.260504917977324 0 0 0
1571 1 7 1.575 14.038417114870917 18.278416760115306 -11.535583303177262 0 0 0
1580 2 7 1.575 15.130639651569073 21.42619518398329 -10.365169245321662 0 0 0
1586 2 7 1.575 12.946194483057585 23.61063899244928 -10.365169228694503 0 0 0
1604 0 8 -1.05 13.046989477899142 21.526989130167284 -10.3701615955366 0 0 0
1615 0 8 -1.05 15.161146533899215 19.401147017912226 -10.363556411997811 0 0 0
1624 0 8 -1.05 15.029844217423511 23.509844492604284 -10.370161587751188 0 0 0
1620 0 8 -1.05 17.083692651412473 23.71314141481283 -12.438733215064808 0 0 0
1189 0 8 -1.05 23.71314141481283 17.083692651412477 -12.438733215064806 0 0 0
1786 2 7 1.575 19.35041530408748 19.35041530408748 -12.41570119214039 0 0 0
1787 2 7 1.575 23.590415465555726 23.590415465555726 -12.415700734261543 0 0 0
1797 2 7 1.575 17.20641829479259 17.20641829479259 -12.415700649026537 0 0 0
1800 2 7 1.575 21.44641849358183 21.44641849358183 -12.41570102971389 0 0 0
1803 0 8 -1.05 21.32369251344885 19.473141201630632 -12.438732531297418 0 0 0
1804 0 8 -1.05 21.615406710627823 23.421427136694543 -12.328144244400123 0 0 0
1814 0 8 -1.05 19.181427069877202 17.375406742671952 -12.328144139611661 0 0 0
1819 0 8 -1.05 19.473141201630632 21.32369251344885 -12.438732531297418 0 0 0
1820 0 8 -1.05 23.421427136694543 21.615406710627823 -12.328144244400123 0 0 0
1827 0 8 -1.05 17.375406742671952 19.181427069877202 -12.328144139611661 0 0 0
1597 0 8 -1.05 17.155687120895173 21.39568665384471 -10.363556511479791 0 0 0
1202 0 8 -1.05 21.39568665384471 17.155687120895173 -10.363556511479791 0 0 0
1778 1 7 1.575 24.638416384144712 24.638416384144712 -9.260505105256705 0 0 0
1779 1 7 1.575 22.518417123439622 18.278416733348237 -11.535582900842662 0 0 0
1781 1 7 1.575 18.278416733348237 22.518417123439622 -11.535582900842662 0 0 0
1784 1 7 1.575 20.398417172695634 20.398417172695627 -9.260505556647551 0 0 0
1788 2 7 1.575 23.610639019658343 21.42619516286441 -10.365169091018117 0 0 0
1791 2 7 1.575 17.186194403985755 19.370638851235366 -10.36516920591861 0 0 0
1794 2 7 1.575 21.42619516286441 23.610639019658343 -10.365169091018117 0 0 0
1795 2 7 1.575 19.370638851235366 17.186194403985755 -10.36516920591861 0 0 0
1808 0 8 -1.05 19.26984465290696 19.26984465290696 -10.37016160545659 0 0 0
1812 0 8 -1.05 21.52698934543557 21.52698934543557 -10.370161791063332 0 0 0
1815 0 8 -1.05 19.40114712730902 23.641146962854627 -10.363556439603228 0 0 0
1818 0 8 -1.05 17.286989576698915 17.286989576698915 -10.370161576267645 0 0 0
1823 0 8 -1.05 23.64114696285463 19.40114712730902 -10.363556439603228 0 0 0
1832 0 8 -1.05 23.509844306703076 23.509844306703073 -10.37016177478908 0 0 0
132 0 8 -1.05 2.4546456462281174 2.454645646228117 -6.105130130911041 0 0 0
135 0 8 -1.05 2.3559979492817154 4.520835555554229 -8.102662330041744 0 0 0
146 0 8 -1.05 4.577245303469651 0.33724517542995963 -6.106267023598423 0 0 0
147 0 8 -1.05 2.299588297723215 6.539589300718569 -6.106267073632858 0 0 0
153 0 8 -1.05 4.520835555554232 2.355997949281713 -8.102662330041742 0 0 0
157 0 8 -1.05 4.47205180192641 6.6447826533500125 -8.361304149792074 0 0 0
166 0 8 -1.05 6.644782653350015 4.472051801926408 -8.361304149792074 0 0 0
169 1 7 1.575 1.3184171870738124 1.3184171870738144 -7.194500439541973 0 0 0
172 1 7 1.575 3.43841729970165 7.678417189951664 -5.02907985094625 0 0 0
174 1 7 1.575 7.678417189951662 3.4384172997016527 -5.029079850946249 0 0 0
175 1 7 1.575 5.558416380180591 5.558416380180595 -7.194500314657872 0 0 0
177 2 6 1.05 4.506842369254975 0.26684232502388666 -8.238112332355366 0 0 0
181 2 7 1.575 2.378035193358633 4.498799191188292 -6.0996707702800625 0 0 0
182 2 7 1.575 0.25879885640374484 6.618033977636379 -6.099670737288068 0 0 0
184 2 6 1.05 0.2668423250238854 4.506842369254976 -8.238112332355366 0 0 0
185 2 7 1.575 4.49879919118829 2.3780351933586337 -6.099670770280063 0 0 0
188 2 7 1.575 6.618033977636378 0.2587988564037463 -6.099670737288067 0 0 0
190 2 6 1.05 6.609990717712444 2.3699919028360665 -8.238112419640974 0 0 0
191 2 6 1.05 2.3699919028360656 6.609990717712446 -8.238112419640974 0 0 0
194 0 8 -1.05 6.595998781016951 0.2808356247674363 -8.102662455502305 0 0 0
198 0 8 -1.05 0.3372451754299591 4.577245303469649 -6.106267023598423 0 0 0
199 0 8 -1.05 6.694646002834512 6.694646002834511 -6.10513037819626 0 0 0
202 0 8 -1.05 0.2808356247674365 6.5959987810169505 -8.102662455502305 0 0 0
203 0 8 -1.05 4.422187812390081 4.42218781239008 -6.105130185230338 0 0 0
208 0 8 -1.05 6.539589300718569 2.299588297723214 -6.106267073632858 0 0 0
1385 0 8 -1.05 2.4047819182992014 0.23205167637543558 -8.361304308301829 0 0 0
561 0 8 -1.05 0.23205167637543728 2.4047819182992 -8.361304308301827 0 0 0
1831 0 8 -1.05 0.1821882344584618 0.1821882344584616 -6.105130200394538 0 0 0
129 0 8 -1.05 6.538523559340585 6.538523559340584 -1.8618120931660802 0 0 0
142 0 8 -1.05 0.282544072191242 2.354289566011122 -3.8676486877634457 0 0 0
152 0 8 -1.05 6.698114224029569 2.4581133817980576 -1.8598537041583088 0 0 0
160 0 8 -1.05 6.594290220416464 4.522544093902568 -3.867648379189494 0 0 0
161 0 8 -1.05 2.4036065228547145 4.4732270428335825 -4.094483451389828 0 0 0
165 0 8 -1.05 0.338310679161527 0.3383106791615259 -1.861811885618486 0 0 0
171 1 7 1.575 5.5584163560016115 1.3184171849273076 -2.9345579673903632 0 0 0
173 1 7 1.575 1.3184171849273052 5.558416356001614 -2.9345579673903632 0 0 0
178 2 6 1.05 2.377021359307086 2.3770213593070872 -3.9818061743048165 0 0 0
179 2 6 1.05 6.617020083775302 6.617020083775303 -3.981806491251268 0 0 0
180 2 7 1.575 6.618626137024148 4.498206820501035 -1.8609449959799425 0 0 0
183 2 7 1.575 0.25820692772405457 2.3786273419212525 -1.860945093485856 0 0 0
186 2 7 1.575 4.498206820501034 6.618626137024149 -1.8609449959799433 0 0 0
187 2 7 1.575 2.3786273419212507 0.258206927724057 -1.8609450934858551 0 0 0
189 2 6 1.05 0.2598128550875579 0.25981285508755836 -3.981806253308335 0 0 0
192 2 6 1.05 4.499812970357228 4.499812970357228 -3.9818062397835075 0 0 0
195 0 8 -1.05 4.473227042833583 2.4036065228547128 -4.094483451389827 0 0 0
196 0 8 -1.05 4.52254409390257 6.594290220416461 -3.8676483791894927 0 0 0
200 0 8 -1.05 2.2985228857522966 2.298522885752296 -1.8618117897755964 0 0 0
204 0 8 -1.05 4.578310962400341 4.57831096240034 -1.8618118525535385 0 0 0
206 0 8 -1.05 2.3542895660111234 0.28254407219124084 -3.867648687763446 0 0 0
207 0 8 -1.05 2.4581133817980585 6.698114224029569 -1.8598537041583088 0 0 0
1391 0 8 -1.05 4.41871991363411 0.17872019256053492 -1.8598536229150662 0 0 0
1453 0 8 -1.05 6.643607188603485 0.23322735409211023 -4.094482988271743 0 0 0
554 0 8 -1.05 0.2332273540921109 6.643607188603482 -4.094482988271743 0 0 0
613 0 8 -1.05 0.17872019256053462 4.418719913634108 -1.8598536229150664 0 0 0
145 0 8 -1.05 8.71205092695413 2.4047817293999927 -8.361304128981658 0 0 0
1415 0 8 -1.05 8.662187400381518 0.18218836034403116 -6.105130318057425 0 0 0
340 0 8 -1.05 10.934646481783092 2.454645557448572 -6.1051302251885815 0 0 0
343 0 8 -1.05 10.835998656187211 4.520835658202686 -8.102662253276998 0 0 0
355 0 8 -1.05 10.779588813252843 6.539589046311564 -6.106267332026688 0 0 0
377 1 7 1.575 9.7984172454048 1.318417186669907 -7.194500326063009 0 0 0
380 1 7 1.575 11.918416379419227 7.678417134405755 -5.029079935077047 0 0 0
389 2 7 1.575 10.858034068953264 4.4987989826539705 -6.099670765707533 0 0 0
390 2 7 1.575 8.738800074338059 6.6180341863206396 -6.099670726477078 0 0 0
392 2 6 1.05 8.746843406836648 4.50684235043086 -8.238112408994063 0 0 0
399 2 6 1.05 10.849990897450477 6.609990752783065 -8.238112481634287 0 0 0
406 0 8 -1.05 8.81724460010944 4.577245568810723 -6.106267260600908 0 0 0
410 0 8 -1.05 8.760834892970687 6.595998684405899 -8.102662375216168 0 0 0
1593 0 8 -1.05 10.884782639677235 0.23205184716431304 -8.361304174505863 0 0 0
138 0 8 -1.05 8.713226579681995 6.6436070426309755 -4.094482934979066 0 0 0
197 0 8 -1.05 8.658719342163185 4.4187200958907304 -1.8598538077557991 0 0 0
350 0 8 -1.05 8.762543291523919 2.3542893420925664 -3.867648393918657 0 0 0
369 0 8 -1.05 10.883607269050522 4.473227136498386 -4.0944834715499665 0 0 0
373 0 8 -1.05 8.818310082999888 0.33831092759823733 -1.861812054140008 0 0 0
381 1 7 1.575 9.798417247454546 5.558416351202365 -2.9345580764638095 0 0 0
386 2 6 1.05 10.857020168997426 2.377021378273901 -3.9818063217089947 0 0 0
391 2 7 1.575 8.738208131736204 2.3786275153062864 -1.8609450077089658 0 0 0
395 2 7 1.575 10.85862620547527 0.25820672161035113 -1.8609449997336578 0 0 0
397 2 6 1.05 8.739814143346818 0.2598128327205119 -3.981806411142702 0 0 0
408 0 8 -1.05 10.778523400500141 2.2985226229337776 -1.8618119468282446 0 0 0
414 0 8 -1.05 10.834290262813958 0.28254429559902045 -3.86764839804917 0 0 0
415 0 8 -1.05 10.938114163531985 6.698114074636218 -1.8598538496628978 0 0 0
354 0 8 -1.05 13.057245071170197 0.3372450766154332 -6.106266976288632 0 0 0
361 0 8 -1.05 13.000835653549503 2.3559980836244265 -8.10266245660719 0 0 0
365 0 8 -1.05 12.952051993468885 6.64478255094599 -8.361303921561628 0 0 0
374 0 8 -1.05 15.124782044361949 4.472051491218945 -8.3613045359732 0 0 0
382 1 7 1.575 16.15841726036939 3.438417313328175 -5.029079742957359 0 0 0
383 1 7 1.575 14.03841720379575 5.558416302334089 -7.194500361993584 0 0 0
385 2 6 1.05 12.98684233600433 0.2668423198256419 -8.23811238440093 0 0 0
393 2 7 1.575 12.978799068574423 2.378035196586219 -6.099670764116598 0 0 0
396 2 7 1.575 15.098035154423009 0.25879907893169135 -6.099670771815494 0 0 0
398 2 6 1.05 15.08999186083245 2.369991857710385 -8.238112303565106 0 0 0
402 0 8 -1.05 15.075998068912922 0.28083563044674514 -8.102662461068812 0 0 0
407 0 8 -1.05 15.174645425652491 6.694646213293434 -6.1051302498713795 0 0 0
411 0 8 -1.05 12.902188127108662 4.422187871752893 -6.10513019900331 0 0 0
416 0 8 -1.05 15.019588479755074 2.299588496048486 -6.106266878473906 0 0 0
337 0 8 -1.05 15.018522745974117 6.53852374133604 -1.8618119202057466 0 0 0
360 0 8 -1.05 15.178113629856208 2.4581136017764718 -1.8598535246055585 0 0 0
368 0 8 -1.05 15.07428946387094 4.522544024807186 -3.86764846848525 0 0 0
379 1 7 1.575 14.038417170566841 1.318417177223172 -2.9345578983877174 0 0 0
387 2 6 1.05 15.097021369156305 6.617020070855934 -3.981806326526964 0 0 0
388 2 7 1.575 15.098627301469568 4.498207026012859 -1.8609450981935483 0 0 0
394 2 7 1.575 12.978206773043764 6.6186261275218765 -1.8609450007519994 0 0 0
400 2 6 1.05 12.979812856854467 4.499812961943694 -3.9818062619268626 0 0 0
403 0 8 -1.05 12.95322714134424 2.4036064008556783 -4.094483266038076 0 0 0
404 0 8 -1.05 13.002544168245544 6.594290366895337 -3.867648591157966 0 0 0
412 0 8 -1.05 13.058310753057002 4.578310847736873 -1.861811871222658 0 0 0
1599 0 8 -1.05 12.89872023483085 0.17872022750408237 -1.8598536123308536 0 0 0
1661 0 8 -1.05 15.123606429731252 0.233227144588737 -4.094483274290549 0 0 0
353 0 8 -1.05 17.192051486126505 2.404782061001131 -8.361304552534344 0 0 0
1623 0 8 -1.05 17.1421879015455 0.1821881354863151 -6.10513021834561 0 0 0
548 0 8 -1.05 19.414646225496362 2.454645405723587 -6.105130252940976 0 0 0
551 0 8 -1.05 19.31599866755586 4.520835536781896 -8.10266235203774 0 0 0
562 0 8 -1.05 21.537244502871992 0.33724532606329644 -6.106267210456773 0 0 0
563 0 8 -1.05 19.25958911817042 6.539589127698603 -6.10626729105875 0 0 0
569 0 8 -1.05 21.480834893730908 2.3559979538304394 -8.102662358643673 0 0 0
573 0 8 -1.05 21.43205125418974 6.644782333079375 -8.361303719005958 0 0 0
582 0 8 -1.05 23.6047827224189 4.472051668048046 -8.361304417214232 0 0 0
585 1 7 1.575 18.27841631652928 1.318417227815008 -7.194500361409368 0 0 0
588 1 7 1.575 20.398417224896697 7.678417185843648 -5.029079999820796 0 0 0
590 1 7 1.575 24.638416353068745 3.4384172163755067 -5.029079790246449 0 0 0
591 1 7 1.575 22.51841728727117 5.558416326834525 -7.1945002736702355 0 0 0
593 2 6 1.05 21.466843421214524 0.26684228908196084 -8.238112479745656 0 0 0
597 2 7 1.575 19.338034050614034 4.498798975959059 -6.099670764525593 0 0 0
598 2 7 1.575 17.21879895145467 6.618034000814462 -6.099670725082939 0 0 0
600 2 6 1.05 17.226842354816316 4.506842363332139 -8.23811226626701 0 0 0
601 2 7 1.575 21.45880027633036 2.378035369664922 -6.0996707821546785 0 0 0