LAMMPS data file via write_data, version 29 Sep 2021, timestep = 9

1116 atoms
10 atom types
0 bonds
6 bond types
0 angles
6 angle types
0 dihedrals
2 dihedral types
0 impropers
2 improper types

0 25.44 xlo xhi
0 25.44 ylo yhi
-11.7784 29.2552 zlo zhi

Masses

1 12.011
2 1.008
3 15.9994
4 15.9994
5 1.008
6 55.845
7 55.845
8 15.9994
9 15.9994
10 1.008

Pair Coeffs # lj/cut/coul/long

1 0.0988 3.31521
2 0.0161 2.4473
3 0.1463 3.04812
4 0.093 3.24287
5 0.0047 0.537925
6 9.0298e-07 4.9062
7 9.0298e-07 4.9062
8 0.1554 3.16554
9 0.1554 3.16554
10 0 0

Bond Coeffs # harmonic

1 361.8 1.105
2 652.57 1.218
3 383.13 1.351
4 563.51 0.973
5 554.135 1
6 0 2.08

Angle Coeffs # harmonic

1 51.617 106.55
2 65.93 123.65
3 65.262 109.49
4 115.745 122.1
5 118.817 130.25
6 30 109.47

Dihedral Coeffs # fourier

1 1 2.3 2 180
2 2 2.3 2 180 1.9 1 0

Improper Coeffs # cvff

1 10.5 -1 2
2 10.5 -1 2

Atoms # full

66 0 8 -1.05 2.441345774364476 2.4413457743644758 2.3562251662005345 0 0 0
68 0 8 -1.05 2.2213590854038503 4.655474737722974 0.39213584579198363 0 0 0
70 0 8 -1.05 0.28073061445506553 2.3561030751346506 4.616785713752913 0 0 0
72 0 8 -1.05 4.566742067895459 0.32674177805260274 2.3504578258140922 0 0 0
73 0 8 -1.05 2.3100917295589096 6.55009234381487 2.350457822588372 0 0 0
75 0 8 -1.05 4.655474737722974 2.221359085403851 0.39213584579198324 0 0 0
77 0 8 -1.05 6.596103667675204 4.520730579004198 4.616785821962945 0 0 0
78 0 8 -1.05 2.404604175187698 4.472229356907922 4.358836647674114 0 0 0
81 0 8 -1.05 6.55009234381487 2.31009172955891 2.3504578225883717 0 0 0
83 0 8 -1.05 2.3561030751346506 0.28073061445506553 4.616785713752913 0 0 0
86 0 8 -1.05 4.4354878937245505 4.43548789372455 2.356225043755893 0 0 0
87 0 8 -1.05 0.4154748358793813 6.461359014173268 0.3921358193413904 0 0 0
90 0 8 -1.05 6.681346306393737 6.681346306393735 2.3562253935031165 0 0 0
91 0 8 -1.05 0.3267417780526027 4.5667420678954596 2.3504578258140922 0 0 0
93 0 8 -1.05 4.520730579004199 6.596103667675203 4.616785821962946 0 0 0
94 0 8 -1.05 4.472229356907922 2.4046041751876976 4.358836647674114 0 0 0
95 0 8 -1.05 6.461359014173268 0.41547483587938133 0.3921358193413902 0 0 0
97 2 6 1.05 4.5068369467999965 4.5068369467999965 4.4817028807047015 0 0 0
98 2 7 1.575 2.3903546089452763 6.630354161795612 0.3048243237612089 0 0 0
99 2 7 1.575 6.630354161795613 2.3903546089452776 0.30482432376120855 0 0 0
100 2 6 1.05 0.26683692842635787 0.26683692842635776 4.481702727894055 0 0 0
101 2 7 1.575 6.650757301541599 0.22607602040198044 2.355142662858477 0 0 0
104 2 7 1.575 4.466075962025676 2.4107581064002015 2.3551427079715763 0 0 0
105 2 7 1.575 0.2464795332513648 4.486479282772444 0.3048244809111999 0 0 0
107 2 7 1.575 0.22607602040198102 6.650757301541599 2.3551426628584764 0 0 0
108 2 7 1.575 2.410758106400201 4.466075962025677 2.355142707971576 0 0 0
110 2 6 1.05 6.609996169847995 6.609996169847996 4.481702567916286 0 0 0
111 2 6 1.05 2.3699972623535617 2.3699972623535617 4.481702879639416 0 0 0
112 2 7 1.575 4.486479282772443 0.24647953325136357 0.30482448091120007 0 0 0
114 1 7 1.575 5.558416908403752 5.558416908403756 1.184585492234554 0 0 0
115 1 7 1.575 7.678417185873215 3.4384172277320344 3.4589671650256304 0 0 0
117 1 7 1.575 3.4384172277320335 7.678417185873216 3.4589671650256295 0 0 0
120 1 7 1.575 1.3184169232139495 1.3184169232139529 1.184585037691852 0 0 0
121 0 8 -1.05 6.753420864909077 4.363413204432862 0.2815821663218372 0 0 0
122 0 8 -1.05 4.363413204432866 6.753420864909073 0.2815821663218387 0 0 0
828 0 8 -1.05 6.644604676718032 0.2322298565843536 4.358837229468509 0 0 0
868 0 8 -1.05 2.513420676876206 0.12341302804190964 0.2815820635746228 0 0 0
317 0 8 -1.05 0.23222985658435197 6.644604676718031 4.35883722946851 0 0 0
371 0 8 -1.05 0.12341302804191277 2.5134206768762026 0.28158206357462406 0 0 0
1072 0 8 -1.05 0.1954879240566418 0.1954879240566402 2.3562253244507043 0 0 0
69 0 8 -1.05 8.712229097905098 6.644604488610704 4.358837430756846 0 0 0
123 0 8 -1.05 8.603412850612955 2.5134205393268396 0.28158221306660786 0 0 0
824 0 8 -1.05 8.675487468207194 0.19548785090281645 2.356225299974335 0 0 0
190 0 8 -1.05 10.921346186792531 2.441345868943539 2.3562251325075576 0 0 0
192 0 8 -1.05 10.701359134313646 4.655474741515807 0.3921357413965331 0 0 0
194 0 8 -1.05 8.76072988787754 2.3561029409436562 4.616785791289691 0 0 0
197 0 8 -1.05 10.790091788199497 6.550092159259882 2.3504576022362533 0 0 0
202 0 8 -1.05 10.884604840871962 4.4722295342807685 4.35883677060301 0 0 0
207 0 8 -1.05 10.836103729822335 0.2807307628768407 4.61678581215535 0 0 0
211 0 8 -1.05 8.895474788449713 6.461359015764438 0.39213569658173586 0 0 0
215 0 8 -1.05 8.806741645415 4.5667422972679885 2.3504575929759546 0 0 0
222 2 7 1.575 10.870354504963094 6.630354268944275 0.3048243887344727 0 0 0
224 2 6 1.05 8.746838029026692 0.2668368885722449 4.481702646447804 0 0 0
229 2 7 1.575 8.726479634837164 4.48647917502365 0.3048245349276115 0 0 0
231 2 7 1.575 8.706076678686703 6.650757320140025 2.355142811410977 0 0 0
232 2 7 1.575 10.890757472288257 4.466075934248199 2.355142883554964 0 0 0
235 2 6 1.05 10.849996258298614 2.369997282939106 4.48170280467849 0 0 0
241 1 7 1.575 11.918416566681655 7.678416982825181 3.458966978642857 0 0 0
244 1 7 1.575 9.798416947001872 1.3184169124592933 1.184585444681259 0 0 0
992 0 8 -1.05 10.993420889291334 0.12341318585489416 0.28158215113996543 0 0 0
196 0 8 -1.05 13.046741749777896 0.32674176793904297 2.3504579467270967 0 0 0
199 0 8 -1.05 13.135474785867677 2.2213590541288406 0.39213591106362417 0 0 0
201 0 8 -1.05 15.076102931956125 4.520730576547438 4.616785838011118 0 0 0
205 0 8 -1.05 15.030091927013016 2.3100919649536076 2.350457933016885 0 0 0
210 0 8 -1.05 12.91548786024625 4.435487975451544 2.3562251907887473 0 0 0
214 0 8 -1.05 15.161345810588124 6.681346273087608 2.3562252775123156 0 0 0
217 0 8 -1.05 13.000730631777877 6.596103799876843 4.61678569528639 0 0 0
218 0 8 -1.05 12.952229513090575 2.4046040445492802 4.358836866007588 0 0 0
219 0 8 -1.05 14.941359029260717 0.4154748289525939 0.39213590911117974 0 0 0
221 2 6 1.05 12.986836929471723 4.5068369497380685 4.481702803352891 0 0 0
223 2 7 1.575 15.110354457575776 2.3903544839566075 0.30482447058636436 0 0 0
225 2 7 1.575 15.130758082389507 0.22607604186261593 2.3551425795348306 0 0 0
228 2 7 1.575 12.946076017593295 2.410758111918026 2.355142594335652 0 0 0
234 2 6 1.05 15.089997317011198 6.60999612062891 4.48170270230235 0 0 0
236 2 7 1.575 12.966479464205355 0.246479515146107 0.30482424881325265 0 0 0
238 1 7 1.575 14.038417123448081 5.55841673873536 1.1845852592024482 0 0 0
239 1 7 1.575 16.158417244938985 3.4384172432991393 3.458967585073051 0 0 0
245 0 8 -1.05 15.233420706009934 4.363413038367449 0.28158176474087554 0 0 0
246 0 8 -1.05 12.843413209265625 6.753420867222355 0.2815824277873653 0 0 0
952 0 8 -1.05 15.124604037033112 0.2322295340858127 4.358836863421404 0 0 0
193 0 8 -1.05 17.192229679013327 6.644604787796627 4.358837010176362 0 0 0
247 0 8 -1.05 17.083413010737655 2.513420700313351 0.28158178581184257 0 0 0
948 0 8 -1.05 17.155487970894992 0.19548783582365928 2.3562251783268957 0 0 0
314 0 8 -1.05 19.40134626510352 2.4413457991517125 2.35622529324091 0 0 0
316 0 8 -1.05 19.181359063678645 4.655474743704436 0.39213577171344377 0 0 0
318 0 8 -1.05 17.240730562045346 2.3561029405164833 4.616785837082464 0 0 0
320 0 8 -1.05 21.52674163007287 0.32674198203886623 2.350457742026854 0 0 0
321 0 8 -1.05 19.27009214713458 6.550092119058968 2.3504576748361283 0 0 0
323 0 8 -1.05 21.615474746770342 2.221359073654771 0.3921357945544436 0 0 0
325 0 8 -1.05 23.556103617251154 4.520730712242616 4.616785938634502 0 0 0
326 0 8 -1.05 19.364604816262485 4.472229696395279 4.358837021021736 0 0 0
329 0 8 -1.05 23.51009199653645 2.3100917515382755 2.3504577171571612 0 0 0
331 0 8 -1.05 19.316103794155854 0.28073063296228634 4.616785685128203 0 0 0
334 0 8 -1.05 21.39548740716074 4.435487879114958 2.3562251841558384 0 0 0
335 0 8 -1.05 17.375474782407636 6.461359024998659 0.3921357720177844 0 0 0
338 0 8 -1.05 23.641346242114885 6.681346381046537 2.3562252421320293 0 0 0
339 0 8 -1.05 17.286742094972826 4.566742093137479 2.350457705029944 0 0 0
341 0 8 -1.05 21.48072990371391 6.596103663888966 4.616785777868355 0 0 0
342 0 8 -1.05 21.43222879223745 2.404603848472198 4.358837059716279 0 0 0
343 0 8 -1.05 23.421359071241678 0.41547482565083343 0.39213577755035095 0 0 0
345 2 6 1.05 21.46683802312699 4.506836924760472 4.481702734432491 0 0 0
346 2 7 1.575 19.35035431513107 6.630354270636625 0.3048241658646524 0 0 0
347 2 7 1.575 23.59035436294507 2.390354579843792 0.3048245488324885 0 0 0
348 2 6 1.05 17.226836941700157 0.26683692650666885 4.4817027987885325 0 0 0
349 2 7 1.575 23.61075746711588 0.2260760027820413 2.3551427589609393 0 0 0
352 2 7 1.575 21.42607672291533 2.4107581349492664 2.3551427598230723 0 0 0
353 2 7 1.575 17.2064793290691 4.486479295704978 0.30482469244105065 0 0 0
355 2 7 1.575 17.186075936137936 6.650757277287132 2.3551427789931627 0 0 0
356 2 7 1.575 19.370757338116796 4.4660759098266025 2.3551427845429966 0 0 0
358 2 6 1.05 23.569996318192583 6.6099961533677964 4.481702661484384 0 0 0
359 2 6 1.05 19.329996118269708 2.3699972870057526 4.481702730087476 0 0 0
360 2 7 1.575 21.446479570448854 0.24647939244455036 0.30482429573587716 0 0 0
362 1 7 1.575 22.51841714540939 5.558416704876958 1.1845856849047058 0 0 0
363 1 7 1.575 24.638416593492057 3.438417025596839 3.458967403651736 0 0 0
365 1 7 1.575 20.39841717410215 7.6784171860090105 3.458966721389893 0 0 0
368 1 7 1.575 18.278416731580773 1.318417115873043 1.1845852650061037 0 0 0
369 0 8 -1.05 23.713420902336008 4.363413183257925 0.2815818673425062 0 0 0
370 0 8 -1.05 21.323413028540184 6.753420712790339 0.2815825973175875 0 0 0
1076 0 8 -1.05 23.604604736696906 0.23222971184298807 4.358836980889719 0 0 0
1116 0 8 -1.05 19.473420844665334 0.12341318932711332 0.2815824488396249 0 0 0
84 0 8 -1.05 6.644604488610705 8.712229097905096 4.358837430756845 0 0 0
124 0 8 -1.05 2.513420539326838 8.603412850612958 0.2815822130666091 0 0 0
438 0 8 -1.05 2.441345868943539 10.921346186792533 2.3562251325075576 0 0 0
440 0 8 -1.05 2.22135905412884 13.135474785867679 0.39213591106362417 0 0 0
442 0 8 -1.05 0.28073076287683935 10.836103729822335 4.61678581215535 0 0 0
444 0 8 -1.05 4.5667422972679885 8.806741645415 2.3504575929759546 0 0 0
445 0 8 -1.05 2.310091964953607 15.030091927013016 2.3504579330168838 0 0 0
447 0 8 -1.05 4.655474741515808 10.701359134313646 0.3921357413965329 0 0 0
449 0 8 -1.05 6.596103799876844 13.000730631777875 4.6167856952863895 0 0 0
450 0 8 -1.05 2.4046040445492802 12.952229513090575 4.358836866007587 0 0 0
453 0 8 -1.05 6.550092159259883 10.790091788199495 2.350457602236253 0 0 0
455 0 8 -1.05 2.3561029409436562 8.76072988787754 4.616785791289691 0 0 0
458 0 8 -1.05 4.435487975451544 12.91548786024625 2.3562251907887464 0 0 0
459 0 8 -1.05 0.4154748289525939 14.941359029260719 0.3921359091111797 0 0 0
462 0 8 -1.05 6.681346273087608 15.161345810588124 2.3562252775123156 0 0 0
463 0 8 -1.05 0.3267417679390423 13.046741749777897 2.3504579467270963 0 0 0
465 0 8 -1.05 4.520730576547438 15.076102931956125 4.616785838011118 0 0 0
466 0 8 -1.05 4.472229534280769 10.884604840871964 4.358836770603011 0 0 0
467 0 8 -1.05 6.4613590157644385 8.895474788449715 0.39213569658173547 0 0 0
469 2 6 1.05 4.5068369497380685 12.986836929471723 4.481702803352892 0 0 0
470 2 7 1.575 2.390354483956609 15.110354457575776 0.3048244705863647 0 0 0
471 2 7 1.575 6.6303542689442745 10.870354504963094 0.304824388734473 0 0 0
472 2 6 1.05 0.26683688857224475 8.746838029026692 4.481702646447803 0 0 0
473 2 7 1.575 6.650757320140024 8.706076678686703 2.355142811410977 0 0 0
476 2 7 1.575 4.466075934248199 10.890757472288257 2.3551428835549646 0 0 0
477 2 7 1.575 0.2464795151461072 12.966479464205355 0.3048242488132533 0 0 0
479 2 7 1.575 0.22607604186261787 15.130758082389507 2.3551425795348315 0 0 0
480 2 7 1.575 2.410758111918027 12.946076017593295 2.355142594335653 0 0 0
482 2 6 1.05 6.60999612062891 15.089997317011198 4.48170270230235 0 0 0
483 2 6 1.05 2.3699972829391065 10.849996258298614 4.48170280467849 0 0 0
484 2 7 1.575 4.486479175023651 8.726479634837164 0.3048245349276119 0 0 0
486 1 7 1.575 5.558416738735362 14.03841712344808 1.1845852592024486 0 0 0
487 1 7 1.575 7.678416982825179 11.918416566681657 3.458966978642858 0 0 0
489 1 7 1.575 3.4384172432991393 16.15841724493898 3.4589675850730526 0 0 0
492 1 7 1.575 1.3184169124592984 9.798416947001868 1.1845854446812594 0 0 0
493 0 8 -1.05 6.753420867222354 12.843413209265625 0.28158242778736536 0 0 0
494 0 8 -1.05 4.3634130383674465 15.233420706009936 0.2815817647408736 0 0 0
328 0 8 -1.05 0.19548785090281753 8.675487468207194 2.3562252999743354 0 0 0
689 0 8 -1.05 0.23222953408581276 15.124604037033114 4.358836863421403 0 0 0
743 0 8 -1.05 0.12341318585489158 10.993420889291338 0.2815821511399641 0 0 0
80 0 8 -1.05 8.675487377319623 8.675487377319621 2.356225299397455 0 0 0
441 0 8 -1.05 8.71222880377615 15.124603831502384 4.358837034004391 0 0 0
495 0 8 -1.05 8.603412997910214 10.993420722705743 0.2815822879982813 0 0 0
248 0 8 -1.05 10.993420722705745 8.603412997910212 0.2815822879982805 0 0 0
562 0 8 -1.05 10.921346265927877 10.921346265927877 2.356225101019107 0 0 0
564 0 8 -1.05 10.70135911933448 13.135474792505192 0.39213577889763185 0 0 0
566 0 8 -1.05 8.760730013233394 10.836103616939992 4.616785901925237 0 0 0
569 0 8 -1.05 10.79009202929681 15.030091733471844 2.3504577290066027 0 0 0
574 0 8 -1.05 10.884604745058011 12.952229698992756 4.358836977889416 0 0 0
579 0 8 -1.05 10.836103616939994 8.760730013233394 4.616785901925236 0 0 0
583 0 8 -1.05 8.895474802924067 14.941359035463224 0.3921357810658055 0 0 0
587 0 8 -1.05 8.806741658570578 13.046741972523371 2.35045770531319 0 0 0
594 2 7 1.575 10.870354402028925 15.11035454720237 0.30482453674579085 0 0 0
596 2 6 1.05 8.746837982247262 8.74683798224726 4.481702557925238 0 0 0
601 2 7 1.575 8.726479621122964 12.966479361779355 0.30482430548190426 0 0 0
603 2 7 1.575 8.706076752227013 15.130758118901971 2.355142739415666 0 0 0
604 2 7 1.575 10.890757471257722 12.946075998274445 2.355142766337494 0 0 0
607 2 6 1.05 10.849996282610713 10.849996282610713 4.481702760393926 0 0 0
613 1 7 1.575 11.918416594810282 16.158417006452808 3.4589673972804516 0 0 0
616 1 7 1.575 9.798416928584997 9.798416928584999 1.1845858613504594 0 0 0
208 0 8 -1.05 15.124603831502384 8.71222880377615 4.35883703400439 0 0 0
568 0 8 -1.05 13.046741972523371 8.806741658570578 2.350457705313191 0 0 0
571 0 8 -1.05 13.135474792505192 10.701359119334482 0.3921357788976319 0 0 0
573 0 8 -1.05 15.076103062092171 13.000730629779477 4.616785710309178 0 0 0
577 0 8 -1.05 15.030091733471846 10.790092029296812 2.350457729006603 0 0 0
582 0 8 -1.05 12.915487940612136 12.915487940612136 2.3562253155580444 0 0 0
586 0 8 -1.05 15.161345781617122 15.161345781617122 2.356225152611414 0 0 0
589 0 8 -1.05 13.000730629779477 15.076103062092171 4.616785710309178 0 0 0
590 0 8 -1.05 12.952229698992758 10.88460474505801 4.358836977889417 0 0 0
591 0 8 -1.05 14.941359035463224 8.895474802924067 0.3921357810658057 0 0 0
593 2 6 1.05 12.9868369158314 12.9868369158314 4.481702756366857 0 0 0
595 2 7 1.575 15.11035454720237 10.870354402028925 0.30482453674579035 0 0 0
597 2 7 1.575 15.130758118901971 8.706076752227014 2.3551427394156654 0 0 0
600 2 7 1.575 12.946075998274445 10.890757471257723 2.3551427663374933 0 0 0
606 2 6 1.05 15.089997266986604 15.089997266986604 4.48170283983525 0 0 0
608 2 7 1.575 12.966479361779355 8.726479621122964 0.3048243054819041 0 0 0
610 1 7 1.575 14.038416949531678 14.038416949531673 1.1845850331068402 0 0 0
611 1 7 1.575 16.158417006452808 11.918416594810285 3.4589673972804507 0 0 0
617 0 8 -1.05 15.233420723396243 12.843413066634204 0.28158203693473677 0 0 0
618 0 8 -1.05 12.843413066634199 15.233420723396248 0.28158203693473455 0 0 0
204 0 8 -1.05 17.15548785523683 8.67548740102086 2.3562251756103296 0 0 0
565 0 8 -1.05 17.19222937122365 15.124604165585875 4.358836627402192 0 0 0
619 0 8 -1.05 17.083413156728344 10.993420879671419 0.28158188434345244 0 0 0
332 0 8 -1.05 23.60460454571147 8.712228968123071 4.358837175559917 0 0 0
372 0 8 -1.05 19.473420697067958 8.603413013265751 0.2815826030970141 0 0 0
686 0 8 -1.05 19.401346365162514 10.921346219073326 2.3562252526758694 0 0 0
688 0 8 -1.05 19.181359054471187 13.135474791697046 0.39213582616676557 0 0 0
690 0 8 -1.05 17.240730683827717 10.836103619533322 4.616785920144283 0 0 0
692 0 8 -1.05 21.526741853741143 8.806741870827441 2.350457503527179 0 0 0
693 0 8 -1.05 19.270092381246975 15.030091692961415 2.3504578238978233 0 0 0
695 0 8 -1.05 21.615474752256468 10.70135912374029 0.39213567964745266 0 0 0
697 0 8 -1.05 23.556103741684282 13.000730766418059 4.616785817681167 0 0 0
698 0 8 -1.05 19.364604709455833 12.95222985149837 4.358837254147246 0 0 0
701 0 8 -1.05 23.51009179754059 10.79009181129699 2.350457513262797 0 0 0
703 0 8 -1.05 19.316103662470216 8.760729883542387 4.616785771266634 0 0 0
706 0 8 -1.05 21.395487478998138 12.915487853931566 2.3562253168743132 0 0 0
707 0 8 -1.05 17.37547477510901 14.941359039664855 0.39213585204073576 0 0 0
710 0 8 -1.05 23.641346202131004 15.161345892547471 2.3562251059711783 0 0 0
711 0 8 -1.05 17.286742083584326 13.04674176027933 2.3504578329435337 0 0 0
713 0 8 -1.05 21.480729911053704 15.07610294070612 4.616785809929726 0 0 0
714 0 8 -1.05 21.432228946022992 10.884604554971338 4.358837172672783 0 0 0
715 0 8 -1.05 23.421359077769626 8.895474796751975 0.39213565667583855 0 0 0
717 2 6 1.05 21.46683802688334 12.98683689698481 4.481702655326812 0 0 0
718 2 7 1.575 19.350354202632648 15.110354573932554 0.30482432973410545 0 0 0
719 2 7 1.575 23.590354464149154 10.87035449779774 0.30482462497514945 0 0 0
720 2 6 1.05 17.226836913952678 8.746838031392297 4.481702719074784 0 0 0
721 2 7 1.575 23.610757511334512 8.706076724842877 2.3551428998947164 0 0 0
724 2 7 1.575 21.426076659020588 10.890757506602524 2.355142915061062 0 0 0
725 2 7 1.575 17.206479308910378 12.966479486823808 0.30482448339105445 0 0 0
727 2 7 1.575 17.186075980092053 15.130758100639117 2.355142685699019 0 0 0
728 2 7 1.575 19.37075731839025 12.946075999621602 2.3551426980220187 0 0 0
730 2 6 1.05 23.56999626831839 15.089997311155146 4.481702791820883 0 0 0
731 2 6 1.05 19.329996137274794 10.8499962777145 4.481702642299949 0 0 0
732 2 7 1.575 21.44647948973818 8.72647950445969 0.304824374274545 0 0 0
734 1 7 1.575 22.518416959207368 14.038416934317308 1.1845854299736942 0 0 0
735 1 7 1.575 24.63841637430722 11.91841636362364 3.4589672172605117 0 0 0
737 1 7 1.575 20.398417216310033 16.158417225354793 3.4589671765061825 0 0 0
740 1 7 1.575 18.278416699938845 9.79841712370851 1.1845856669288646 0 0 0
741 0 8 -1.05 23.713420899178598 12.843413215279393 0.28158212024899704 0 0 0
742 0 8 -1.05 21.32341287114218 15.233420559643344 0.2815821774617612 0 0 0
456 0 8 -1.05 6.644604787796628 17.192229679013327 4.358837010176361 0 0 0
496 0 8 -1.05 2.5134207003133513 17.083413010737655 0.281581785811842 0 0 0
810 0 8 -1.05 2.4413457991517116 19.401346265103516 2.35622529324091 0 0 0
812 0 8 -1.05 2.221359073654771 21.615474746770346 0.39213579455444375 0 0 0
814 0 8 -1.05 0.2807306329622855 19.316103794155854 4.616785685128202 0 0 0
816 0 8 -1.05 4.566742093137479 17.286742094972826 2.3504577050299438 0 0 0
817 0 8 -1.05 2.3100917515382755 23.51009199653645 2.350457717157161 0 0 0
819 0 8 -1.05 4.655474743704436 19.18135906367865 0.3921357717134435 0 0 0
821 0 8 -1.05 6.596103663888965 21.480729903713915 4.616785777868356 0 0 0
822 0 8 -1.05 2.404603848472198 21.43222879223745 4.358837059716279 0 0 0
825 0 8 -1.05 6.550092119058967 19.27009214713458 2.350457674836128 0 0 0
827 0 8 -1.05 2.3561029405164833 17.240730562045346 4.616785837082462 0 0 0
830 0 8 -1.05 4.435487879114958 21.39548740716074 2.356225184155838 0 0 0
831 0 8 -1.05 0.4154748256508338 23.421359071241678 0.3921357775503512 0 0 0
834 0 8 -1.05 6.681346381046537 23.641346242114885 2.356225242132029 0 0 0
835 0 8 -1.05 0.3267419820388652 21.52674163007287 2.350457742026854 0 0 0
837 0 8 -1.05 4.520730712242616 23.556103617251154 4.616785938634501 0 0 0
838 0 8 -1.05 4.472229696395279 19.364604816262485 4.358837021021735 0 0 0
839 0 8 -1.05 6.461359024998659 17.375474782407636 0.3921357720177844 0 0 0
841 2 6 1.05 4.5068369247604725 21.46683802312699 4.48170273443249 0 0 0
842 2 7 1.575 2.3903545798437937 23.59035436294507 0.304824548832489 0 0 0
843 2 7 1.575 6.630354270636624 19.35035431513107 0.30482416586465283 0 0 0
844 2 6 1.05 0.26683692650666885 17.226836941700157 4.4817027987885325 0 0 0
845 2 7 1.575 6.650757277287132 17.186075936137936 2.3551427789931636 0 0 0
848 2 7 1.575 4.4660759098266025 19.370757338116796 2.3551427845429975 0 0 0
849 2 7 1.575 0.2464793924445498 21.446479570448854 0.3048242957358773 0 0 0
851 2 7 1.575 0.22607600278204107 23.61075746711588 2.35514275896094 0 0 0
852 2 7 1.575 2.410758134949267 21.42607672291533 2.3551427598230736 0 0 0
854 2 6 1.05 6.6099961533677964 23.56999631819258 4.481702661484384 0 0 0
855 2 6 1.05 2.369997287005753 19.329996118269708 4.481702730087477 0 0 0
856 2 7 1.575 4.486479295704977 17.2064793290691 0.30482469244105065 0 0 0
858 1 7 1.575 5.558416704876964 22.518417145409387 1.1845856849047067 0 0 0
859 1 7 1.575 7.6784171860090105 20.398417174102146 3.458966721389894 0 0 0
861 1 7 1.575 3.4384170255968396 24.63841659349206 3.4589674036517373 0 0 0
864 1 7 1.575 1.3184171158730433 18.278416731580773 1.1845852650061055 0 0 0
865 0 8 -1.05 6.7534207127903345 21.32341302854019 0.28158259731758906 0 0 0
866 0 8 -1.05 4.3634131832579195 23.713420902336015 0.28158186734250423 0 0 0
700 0 8 -1.05 0.1954878358236585 17.155487970894992 2.356225178326895 0 0 0
1061 0 8 -1.05 0.2322297118429868 23.604604736696906 4.358836980889718 0 0 0
1115 0 8 -1.05 0.12341318932711141 19.473420844665338 0.28158244883962386 0 0 0
452 0 8 -1.05 8.675487401020861 17.155487855236828 2.3562251756103296 0 0 0
813 0 8 -1.05 8.712228968123071 23.60460454571147 4.358837175559917 0 0 0
867 0 8 -1.05 8.603413013265754 19.473420697067954 0.28158260309701577 0 0 0
620 0 8 -1.05 10.993420879671422 17.083413156728337 0.2815818843434504 0 0 0
934 0 8 -1.05 10.921346219073326 19.401346365162514 2.356225252675869 0 0 0
936 0 8 -1.05 10.70135912374029 21.615474752256468 0.39213567964745244 0 0 0
938 0 8 -1.05 8.760729883542385 19.316103662470216 4.616785771266634 0 0 0
941 0 8 -1.05 10.79009181129699 23.51009179754059 2.350457513262798 0 0 0
946 0 8 -1.05 10.884604554971338 21.432228946022992 4.358837172672783 0 0 0
951 0 8 -1.05 10.836103619533324 17.240730683827717 4.616785920144281 0 0 0
955 0 8 -1.05 8.895474796751975 23.421359077769626 0.3921356566758382 0 0 0
959 0 8 -1.05 8.806741870827443 21.52674185374114 2.350457503527178 0 0 0
966 2 7 1.575 10.870354497797742 23.590354464149154 0.30482462497514945 0 0 0
968 2 6 1.05 8.746838031392295 17.226836913952678 4.481702719074784 0 0 0
973 2 7 1.575 8.726479504459691 21.44647948973818 0.30482437427454506 0 0 0
975 2 7 1.575 8.706076724842877 23.61075751133451 2.3551428998947164 0 0 0
976 2 7 1.575 10.890757506602524 21.426076659020588 2.3551429150610623 0 0 0
979 2 6 1.05 10.8499962777145 19.32999613727479 4.481702642299948 0 0 0
985 1 7 1.575 11.91841636362364 24.638416374307216 3.4589672172605113 0 0 0
988 1 7 1.575 9.798417123708507 18.278416699938848 1.1845856669288646 0 0 0
580 0 8 -1.05 15.124604165585877 17.19222937122365 4.358836627402192 0 0 0
940 0 8 -1.05 13.04674176027933 17.286742083584322 2.3504578329435333 0 0 0
943 0 8 -1.05 13.135474791697046 19.181359054471184 0.39213582616676557 0 0 0
945 0 8 -1.05 15.076102940706118 21.480729911053704 4.616785809929728 0 0 0
949 0 8 -1.05 15.030091692961415 19.270092381246975 2.350457823897823 0 0 0
954 0 8 -1.05 12.915487853931566 21.395487478998138 2.3562253168743137 0 0 0
958 0 8 -1.05 15.161345892547471 23.641346202131004 2.3562251059711787 0 0 0
961 0 8 -1.05 13.000730766418057 23.556103741684282 4.616785817681167 0 0 0
962 0 8 -1.05 12.95222985149837 19.36460470945583 4.358837254147245 0 0 0
963 0 8 -1.05 14.941359039664855 17.37547477510901 0.3921358520407353 0 0 0
965 2 6 1.05 12.98683689698481 21.466838026883337 4.481702655326813 0 0 0
967 2 7 1.575 15.110354573932554 19.350354202632644 0.3048243297341056 0 0 0
969 2 7 1.575 15.130758100639117 17.186075980092053 2.355142685699019 0 0 0
972 2 7 1.575 12.946075999621602 19.37075731839025 2.3551426980220187 0 0 0
978 2 6 1.05 15.089997311155145 23.56999626831839 4.481702791820882 0 0 0
980 2 7 1.575 12.966479486823806 17.206479308910374 0.30482448339105495 0 0 0
982 1 7 1.575 14.038416934317308 22.518416959207364 1.184585429973693 0 0 0
983 1 7 1.575 16.15841722535479 20.398417216310033 3.4589671765061816 0 0 0
989 0 8 -1.05 15.23342055964334 21.32341287114218 0.2815821774617619 0 0 0
990 0 8 -1.05 12.843413215279394 23.713420899178598 0.281582120248997 0 0 0
576 0 8 -1.05 17.155487879040233 17.15548787904023 2.3562250168741006 0 0 0
937 0 8 -1.05 17.1922295415738 23.604604844647223 4.35883676944869 0 0 0
991 0 8 -1.05 17.083413168540524 19.47342085101385 0.2815821783908975 0 0 0
704 0 8 -1.05 23.604604844647223 17.192229541573802 4.358836769448689 0 0 0
744 0 8 -1.05 19.47342085101385 17.08341316854052 0.28158217839089655 0 0 0
1058 0 8 -1.05 19.401346307611636 19.401346307611636 2.3562254062993166 0 0 0
1060 0 8 -1.05 19.181359047531206 21.61547474050413 0.3921357084532908 0 0 0
1062 0 8 -1.05 17.240730572095014 19.316103664062474 4.616785802812092 0 0 0
1064 0 8 -1.05 21.526741636061484 17.286742316567967 2.3504576073133148 0 0 0
1065 0 8 -1.05 19.270092171044208 23.51009176705889 2.3504575989792347 0 0 0
1067 0 8 -1.05 21.61547474050413 19.181359047531206 0.3921357084532902 0 0 0
1069 0 8 -1.05 23.55610362165543 21.48073003952158 4.616785912002813 0 0 0
1070 0 8 -1.05 19.364604494018867 21.43222909981489 4.358837453479291 0 0 0
1073 0 8 -1.05 23.51009176705889 19.27009217104421 2.3504575989792333 0 0 0
1075 0 8 -1.05 19.316103664062474 17.240730572095014 4.6167858028120925 0 0 0
1078 0 8 -1.05 21.395487387521932 21.395487387521936 2.356225314377349 0 0 0
1079 0 8 -1.05 17.375474770358522 23.421359089885172 0.3921357155401519 0 0 0
1082 0 8 -1.05 23.64134629499876 23.641346294998755 2.356225100190388 0 0 0
1083 0 8 -1.05 17.286742316567963 21.526741636061487 2.350457607313314 0 0 0
1085 0 8 -1.05 21.48073003952158 23.556103621655428 4.616785912002815 0 0 0
1086 0 8 -1.05 21.432229099814894 19.36460449401887 4.35883745347929 0 0 0
1087 0 8 -1.05 23.421359089885172 17.375474770358522 0.39213571554015164 0 0 0
1089 2 6 1.05 21.4668380098359 21.4668380098359 4.4817025653647855 0 0 0
1090 2 7 1.575 19.350354289743937 23.590354471911798 0.30482439106582376 0 0 0
1091 2 7 1.575 23.590354471911798 19.350354289743937 0.30482439106582343 0 0 0
1092 2 6 1.05 17.226836949156368 17.226836949156368 4.4817028667805685 0 0 0
1093 2 7 1.575 23.61075746454014 17.18607594222364 2.355142853114299 0 0 0
1096 2 7 1.575 21.42607667327766 19.370757348426565 2.3551428425256673 0 0 0
1097 2 7 1.575 17.20647920220124 21.44647959026063 0.30482451235471947 0 0 0
1099 2 7 1.575 17.18607594222364 23.610757464540136 2.3551428531142986 0 0 0
1100 2 7 1.575 19.37075734842656 21.42607667327766 2.355142842525667 0 0 0
1102 2 6 1.05 23.569996296443545 23.569996296443545 4.481702738661045 0 0 0
1103 2 6 1.05 19.329996156113282 19.329996156113282 4.481702589683748 0 0 0
1104 2 7 1.575 21.44647959026063 17.20647920220124 0.30482451235472047 0 0 0
1106 1 7 1.575 22.51841694376042 22.51841694376042 1.1845858519058072 0 0 0
1107 1 7 1.575 24.63841657517613 20.398416967062506 3.4589669765618103 0 0 0
1109 1 7 1.575 20.39841696706251 24.63841657517613 3.4589669765618085 0 0 0
1112 1 7 1.575 18.27841691378969 18.27841691378969 1.184585488301127 0 0 0
1113 0 8 -1.05 23.713420738817238 21.32341301075102 0.2815822756377047 0 0 0
1114 0 8 -1.05 21.323413010751022 23.713420738817238 0.28158227563770577 0 0 0
10 0 8 -1.05 2.4570926404269304 2.4570926404269304 10.863865277718151 0 0 0
12 0 8 -1.05 2.354113839161904 4.522719628921923 8.852741525057047 0 0 0
16 0 8 -1.05 4.574977358602822 0.3349772503208259 10.862728967769229 0 0 0
17 0 8 -1.05 2.301856283057262 6.541857235320204 10.86272893331399 0 0 0
19 0 8 -1.05 4.522719628921924 2.3541138391619043 8.852741525057047 0 0 0
25 0 8 -1.05 6.541857235320203 2.301856283057263 10.862728933313992 0 0 0
30 0 8 -1.05 4.419740827346418 4.419740827346418 10.863865156701856 0 0 0
31 0 8 -1.05 0.28271974992918336 6.594114796787159 8.852741336810384 0 0 0
34 0 8 -1.05 6.6970929353951165 6.6970929353951165 10.863864728410896 0 0 0
35 0 8 -1.05 0.33497725032082576 4.574977358602822 10.862728967769227 0 0 0
39 0 8 -1.05 6.59411479678716 0.2827197499291833 8.852741336810384 0 0 0
42 2 6 1.05 2.3784177679306198 6.618416426683849 8.738412936132933 0 0 0
43 2 6 1.05 6.618416426683849 2.3784177679306193 8.738412936132933 0 0 0
45 2 7 1.575 6.618798388284791 0.2580344362024116 10.857664511778442 0 0 0
48 2 7 1.575 4.498034755890148 2.378799613369246 10.857664519566388 0 0 0
49 2 6 1.05 0.25841647161338294 4.498416579746617 8.73841300728945 0 0 0
51 2 7 1.575 0.2580344362024119 6.618798388284792 10.85766451177844 0 0 0
52 2 7 1.575 2.378799613369247 4.498034755890148 10.857664519566386 0 0 0
56 2 6 1.05 4.498416579746618 0.25841647161338355 8.738413007289452 0 0 0
58 1 7 1.575 5.558416303245109 5.558416303245109 9.787310977579992 0 0 0
59 1 7 1.575 7.678417170241448 3.4384172596475873 11.95207088041437 0 0 0
61 1 7 1.575 3.4384172596475873 7.678417170241448 11.95207088041437 0 0 0
64 1 7 1.575 1.318417218570465 1.3184172185704646 9.787311104006832 0 0 0
65 0 8 -1.05 6.539741258096744 6.539741258096743 6.61296078227676 0 0 0