LAMMPS data file via write_data, version 17 Feb 2022, timestep = 0

1854 atoms
3 atom types

-4.132299 21.303832 xlo xhi
-4.120963 20.957004 ylo yhi
-27.980077 87.100077 zlo zhi

Masses

1 55.845
2 55.845
3 15.994

Pair Coeffs # lj/cut/coul/long

1 9.0298e-07 4.9062
2 9.0298e-07 4.9062
3 0.1554 3.16554

Atoms # full

1 1 2 1.575 2.107023 -2.117549 28.398071 0 0 0
2 1 1 1.05 -1.895712 2.359716 28.398071 0 0 0
3 1 2 1.575 4.346411 -4.117913 30.71022 0 0 0
4 1 2 1.575 0.104651 0.120328 30.71022 0 0 0
5 1 2 1.575 -2.065171 -1.94809 32.757854 0 0 0
6 1 2 1.575 2.25046 2.21628 32.713846000000004 0 0 0
7 1 1 1.05 0.1077 -4.120962 34.860002 0 0 0
8 1 1 1.05 -4.132299 0.119038 34.860002 0 0 0
9 1 1 1.05 2.227701 -2.000962 36.980001 0 0 0
10 1 2 1.575 -2.0123 2.239038 36.980001 0 0 0
11 1 2 1.575 -4.132299 -4.120962 39.1 0 0 0
12 1 2 1.575 0.1077 0.119038 39.1 0 0 0
13 1 2 1.575 -2.0123 -2.000962 41.220001 0 0 0
14 1 2 1.575 2.227701 2.239038 41.220001 0 0 0
15 1 3 -1.05 15.927444 18.037395 57.052536 0 0 0
16 1 3 -1.05 18.268694 15.691805 57.044724 0 0 0
17 1 3 -1.05 13.970997 19.874107 57.044724 0 0 0
18 1 3 -1.05 20.105406 13.735358 57.052536 0 0 0
19 1 3 -1.05 20.489845 17.652958 56.903282 0 0 0
20 1 3 -1.05 17.885935 20.256866 56.900856 0 0 0
21 1 3 -1.05 13.824108 15.838694 57.080154 0 0 0
22 1 3 -1.05 16.06813 13.594671 57.058395 0 0 0
23 1 3 -1.05 18.222307 13.56144 54.899567 0 0 0
24 1 3 -1.05 20.171354 15.856843 54.903824 0 0 0
25 1 3 -1.05 16.101362 19.920498 54.899567 0 0 0
26 1 3 -1.05 13.805959 17.971449 54.903824 0 0 0
27 1 3 -1.05 20.154657 19.91765 54.883659 0 0 0
28 1 3 -1.05 13.810401 13.605213 55.00296 0 0 0
29 1 3 -1.05 18.225153 17.988148 54.883659 0 0 0
30 1 3 -1.05 16.05759 15.852402 55.00296 0 0 0
31 1 3 -1.05 13.998606 15.664196 52.802242 0 0 0
32 1 3 -1.05 18.199839 19.942963 52.877686 0 0 0
33 1 3 -1.05 15.911615 13.751188 52.806412 0 0 0
34 1 3 -1.05 20.192858 17.949944 52.863804 0 0 0
35 1 3 -1.05 13.801696 20.128141 52.870129 0 0 0
36 1 3 -1.05 16.090431 17.816786 52.762852 0 0 0
37 1 3 -1.05 20.326017 13.57237 52.762852 0 0 0
38 1 3 -1.05 18.01466 15.861105 52.870129 0 0 0
39 1 2 1.575 0.1077 -4.120962 43.34 0 0 0
40 1 1 1.05 -4.132299 0.119038 43.34 0 0 0
41 1 2 1.575 2.227701 -2.000962 45.459999 0 0 0
42 1 2 1.575 -2.0123 2.239038 45.459999 0 0 0
43 1 2 1.575 -4.132299 -4.120962 47.580002 0 0 0
44 1 2 1.575 0.1077 0.119038 47.580002 0 0 0
45 1 2 1.575 -2.0123 -2.000962 49.700001 0 0 0
46 1 2 1.575 2.227701 2.239038 49.700001 0 0 0
47 1 2 1.575 0.084942 -4.098205 51.846153 0 0 0
48 1 2 1.575 -4.079428 0.066166 51.802147 0 0 0
49 1 1 1.05 2.230749 -2.002253 53.849781 0 0 0
50 1 2 1.575 -2.011009 2.235989 53.849781 0 0 0
51 1 1 1.05 4.231115 4.238359 56.161926 0 0 0
52 1 1 1.05 0.22838 0.235624 56.161926 0 0 0
53 1 2 1.575 -4.128268 0.115007 28.459527 0 0 0
54 1 2 1.575 -2.016331 -1.996931 56.100471 0 0 0
55 1 2 1.575 -3.173933 -2.991083 27.723869 0 0 0
56 1 1 1.05 -1.022179 -0.839329 27.723869 0 0 0
57 1 2 1.575 3.378679 3.233557 27.731513 0 0 0
58 1 2 1.575 1.233179 1.088058 27.731513 0 0 0
59 1 2 1.575 1.211811 3.254927 29.588438 0 0 0
60 1 1 1.05 -1.015719 -2.997542 29.579286000000003 0 0 0
61 1 2 1.575 1.148142 -3.021626 31.706983 0 0 0
62 1 2 1.575 -3.131365 1.137365 31.490314 0 0 0
63 1 2 1.575 3.329372 -0.881897 31.490314 0 0 0
64 1 2 1.575 -0.991635 3.318598 31.706983 0 0 0
65 1 2 1.575 -0.952299 1.179037 33.800001 0 0 0
66 1 1 1.05 -3.0723 3.299038 33.800001 0 0 0
67 1 2 1.575 1.1677 -0.940962 33.800001 0 0 0
68 1 2 1.575 3.287701 -3.060963 33.800001 0 0 0
69 1 2 1.575 -0.952299 -0.940962 35.92 0 0 0
70 1 2 1.575 3.287701 3.299038 35.92 0 0 0
71 1 1 1.05 -3.0723 -3.060963 35.92 0 0 0
72 1 1 1.05 1.1677 1.179037 35.92 0 0 0
73 1 2 1.575 3.287701 1.179037 38.04 0 0 0
74 1 2 1.575 -3.0723 -0.940962 38.04 0 0 0
75 1 1 1.05 1.1677 3.299038 38.04 0 0 0
76 1 1 1.05 -0.952299 -3.060963 38.04 0 0 0
77 1 2 1.575 1.1677 -3.060963 40.160001 0 0 0
78 1 2 1.575 -3.0723 1.179037 40.160001 0 0 0
79 1 2 1.575 3.287701 -0.940962 40.160001 0 0 0
80 1 2 1.575 -0.952299 3.299038 40.160001 0 0 0
81 1 2 1.575 -0.952299 1.179037 42.28 0 0 0
82 1 2 1.575 -3.0723 3.299038 42.28 0 0 0
83 1 2 1.575 1.1677 -0.940962 42.28 0 0 0
84 1 2 1.575 3.287701 -3.060963 42.28 0 0 0
85 1 3 -1.05 16.041956 15.814517 50.796833 0 0 0
86 1 3 -1.05 18.088285 17.860846 50.796833 0 0 0
87 1 3 -1.05 20.281956 20.054518 50.796833 0 0 0
88 1 3 -1.05 13.848285 13.620847 50.796833 0 0 0
89 1 3 -1.05 15.968286 19.980846 50.723167 0 0 0
90 1 3 -1.05 18.161955 13.694517 50.723167 0 0 0
91 1 3 -1.05 20.208286 15.740847 50.723167 0 0 0
92 1 3 -1.05 13.921956 17.934517 50.723167 0 0 0
93 1 3 -1.05 13.921956 19.980846 48.676834 0 0 0
94 1 3 -1.05 20.208286 13.694517 48.676834 0 0 0
95 1 3 -1.05 18.161955 15.740847 48.676834 0 0 0
96 1 3 -1.05 15.968286 17.934517 48.676834 0 0 0
97 1 3 -1.05 18.088285 20.054518 48.603165 0 0 0
98 1 3 -1.05 16.041956 13.620847 48.603165 0 0 0
99 1 3 -1.05 20.281956 17.860846 48.603165 0 0 0
100 1 3 -1.05 13.848285 15.814517 48.603165 0 0 0
101 1 3 -1.05 13.848285 17.860846 46.556835 0 0 0
102 1 3 -1.05 18.088285 13.620847 46.556835 0 0 0
103 1 3 -1.05 16.041956 20.054518 46.556835 0 0 0
104 1 3 -1.05 20.281956 15.814517 46.556835 0 0 0
105 1 3 -1.05 13.921956 13.694517 46.483166 0 0 0
106 1 3 -1.05 15.968286 15.740847 46.483166 0 0 0
107 1 3 -1.05 18.161955 17.934517 46.483166 0 0 0
108 1 3 -1.05 20.208286 19.980846 46.483166 0 0 0
109 1 3 -1.05 20.208286 17.934517 44.436836 0 0 0
110 1 3 -1.05 18.161955 19.980846 44.436836 0 0 0
111 1 3 -1.05 15.968286 13.694517 44.436836 0 0 0
112 1 3 -1.05 13.921956 15.740847 44.436836 0 0 0
113 1 3 -1.05 18.088285 15.814517 44.363167 0 0 0
114 1 3 -1.05 13.848285 20.054518 44.363167 0 0 0
115 1 3 -1.05 16.041956 17.860846 44.363167 0 0 0
116 1 3 -1.05 20.281956 13.620847 44.363167 0 0 0
117 1 3 -1.05 18.088285 17.860846 42.316835 0 0 0
118 1 3 -1.05 16.041956 15.814517 42.316835 0 0 0
119 1 3 -1.05 20.281956 20.054518 42.316835 0 0 0
120 1 3 -1.05 13.848285 13.620847 42.316835 0 0 0
121 1 3 -1.05 15.968286 19.980846 42.243165000000005 0 0 0
122 1 3 -1.05 18.161955 13.694517 42.243165000000005 0 0 0
123 1 3 -1.05 20.208286 15.740847 42.243165000000005 0 0 0
124 1 3 -1.05 13.921956 17.934517 42.243165000000005 0 0 0
125 1 3 -1.05 13.921956 19.980846 40.196836000000005 0 0 0
126 1 3 -1.05 20.208286 13.694517 40.196836000000005 0 0 0
127 1 3 -1.05 18.161955 15.740847 40.196836000000005 0 0 0
128 1 3 -1.05 15.968286 17.934517 40.196836000000005 0 0 0
129 1 3 -1.05 18.088285 20.054518 40.123167 0 0 0
130 1 3 -1.05 16.041956 13.620847 40.123167 0 0 0
131 1 3 -1.05 20.281956 17.860846 40.123167 0 0 0
132 1 3 -1.05 13.848285 15.814517 40.123167 0 0 0
133 1 2 1.575 -0.952299 -0.940962 44.400002 0 0 0
134 1 2 1.575 3.287701 3.299038 44.400002 0 0 0
135 1 2 1.575 -3.0723 -3.060963 44.400002 0 0 0
136 1 2 1.575 1.1677 1.179037 44.400002 0 0 0
137 1 2 1.575 3.287701 1.179037 46.52 0 0 0
138 1 2 1.575 -3.0723 -0.940962 46.52 0 0 0
139 1 2 1.575 1.1677 3.299038 46.52 0 0 0
140 1 2 1.575 -0.952299 -3.060963 46.52 0 0 0
141 1 2 1.575 1.1677 -3.060963 48.639999 0 0 0
142 1 1 1.05 -3.0723 1.179037 48.639999 0 0 0
143 1 2 1.575 3.287701 -0.940962 48.639999 0 0 0
144 1 2 1.575 -0.952299 3.299038 48.639999 0 0 0
145 1 2 1.575 -0.952299 1.179037 50.760002 0 0 0
146 1 1 1.05 -3.0723 3.299038 50.760002 0 0 0
147 1 1 1.05 1.1677 -0.940962 50.760002 0 0 0
148 1 2 1.575 3.287701 -3.060963 50.760002 0 0 0
149 1 1 1.05 -3.013234 -3.01929 53.069687 0 0 0
150 1 2 1.575 -0.993971 -1.000029 53.069687 0 0 0
151 1 1 1.05 3.327036 3.279478 52.85302 0 0 0
152 1 1 1.05 1.18726 1.139702 52.85302 0 0 0
153 1 2 1.575 3.35112 1.115618 54.980713 0 0 0
154 1 2 1.575 1.12359 3.343147 54.971558 0 0 0
155 1 2 1.575 1.102221 -2.969983 56.828491 0 0 0
156 1 2 1.575 -2.970667 1.109159 56.836136 0 0 0
157 1 2 1.575 3.35758 -1.042595 56.836136 0 0 0
158 1 2 1.575 -1.043279 3.364517 56.828491 0 0 0
159 1 3 -1.05 1.024126 -0.855085 27.515283 0 0 0
160 1 3 -1.05 3.365377 -3.200677 27.507460000000002 0 0 0
161 1 3 -1.05 -0.812585 1.10136 27.507460000000002 0 0 0
162 1 3 -1.05 -3.158176 3.442612 27.515283 0 0 0
163 1 3 -1.05 3.224689 1.242048 27.501604 0 0 0
164 1 3 -1.05 -1.197023 -2.816236 27.656719000000002 0 0 0
165 1 3 -1.05 1.406885 3.059853 27.659145000000002 0 0 0
166 1 3 -1.05 -3.011286 -1.001975 27.479845 0 0 0
167 1 3 -1.05 -0.878532 -1.020123 29.656181 0 0 0
168 1 3 -1.05 1.070515 1.275278 29.660438 0 0 0
169 1 3 -1.05 -2.993138 -3.134729 29.656181 0 0 0
170 1 3 -1.05 3.19146 3.396223 29.660438 0 0 0
171 1 3 -1.05 -2.99758 1.231506 29.557041 0 0 0
172 1 3 -1.05 -0.861835 3.399069 29.676343000000003 0 0 0
173 1 3 -1.05 3.235231 -1.015682 29.557041 0 0 0
174 1 3 -1.05 1.067669 -3.151426 29.676343000000003 0 0 0
175 1 3 -1.05 -0.900036 -3.113225 31.696195000000003 0 0 0
176 1 3 -1.05 -3.185785 -0.827477 31.757759 0 0 0
177 1 3 -1.05 1.092983 3.373756 31.682315000000003 0 0 0
178 1 3 -1.05 3.381207 1.085531 31.753587000000003 0 0 0
179 1 3 -1.05 3.202391 -2.980066 31.797149 0 0 0
180 1 3 -1.05 -2.988876 3.188578 31.689872 0 0 0
181 1 3 -1.05 1.278162 -1.024386 31.689872 0 0 0
182 1 3 -1.05 -1.033195 1.264349 31.797149 0 0 0
183 1 3 -1.05 -3.035464 1.215872 33.763166 0 0 0
184 1 3 -1.05 3.250866 -0.977797 33.763166 0 0 0
185 1 3 -1.05 -0.989134 3.262203 33.763166 0 0 0
186 1 3 -1.05 1.204535 -3.024127 33.763166 0 0 0
187 1 3 -1.05 -3.109135 -3.097797 33.836835 0 0 0
188 1 3 -1.05 3.324535 3.335873 33.836835 0 0 0
189 1 3 -1.05 -0.915464 -0.904127 33.836835 0 0 0
190 1 3 -1.05 1.130865 1.142202 33.836835 0 0 0
191 1 3 -1.05 3.324535 -3.097797 35.883165000000005 0 0 0
192 1 3 -1.05 -0.915464 1.142202 35.883165000000005 0 0 0
193 1 3 -1.05 -3.109135 3.335873 35.883165000000005 0 0 0
194 1 3 -1.05 1.130865 -0.904127 35.883165000000005 0 0 0
195 1 3 -1.05 -3.035464 -0.977797 35.956834 0 0 0
196 1 3 -1.05 -0.989134 -3.024127 35.956834 0 0 0
197 1 3 -1.05 1.204535 3.262203 35.956834 0 0 0
198 1 3 -1.05 3.250866 1.215872 35.956834 0 0 0
199 1 3 -1.05 3.250866 3.262203 38.003166 0 0 0
200 1 3 -1.05 1.204535 1.215872 38.003166 0 0 0
201 1 3 -1.05 -0.989134 -0.977797 38.003166 0 0 0
202 1 3 -1.05 -3.035464 -3.024127 38.003166 0 0 0
203 1 3 -1.05 3.324535 -0.904127 38.076835 0 0 0
204 1 3 -1.05 -0.915464 3.335873 38.076835 0 0 0
205 1 3 -1.05 1.130865 -3.097797 38.076835 0 0 0
206 1 3 -1.05 -3.109135 1.142202 38.076835 0 0 0
207 1 3 -1.05 -3.109135 -0.904127 40.123167 0 0 0
208 1 3 -1.05 3.324535 1.142202 40.123167 0 0 0
209 1 3 -1.05 -0.915464 -3.097797 40.123167 0 0 0
210 1 3 -1.05 1.130865 3.335873 40.123167 0 0 0
211 1 3 -1.05 -0.989134 1.215872 40.196836000000005 0 0 0
212 1 3 -1.05 1.204535 -0.977797 40.196836000000005 0 0 0
213 1 3 -1.05 3.250866 -3.024127 40.196836000000005 0 0 0
214 1 3 -1.05 -3.035464 3.262203 40.196836000000005 0 0 0
215 1 3 -1.05 -3.035464 1.215872 42.243165000000005 0 0 0
216 1 3 -1.05 3.250866 -0.977797 42.243165000000005 0 0 0
217 1 3 -1.05 1.204535 -3.024127 42.243165000000005 0 0 0
218 1 3 -1.05 -0.989134 3.262203 42.243165000000005 0 0 0
219 1 3 -1.05 -3.109135 -3.097797 42.316835 0 0 0
220 1 3 -1.05 3.324535 3.335873 42.316835 0 0 0
221 1 3 -1.05 -0.915464 -0.904127 42.316835 0 0 0
222 1 3 -1.05 1.130865 1.142202 42.316835 0 0 0
223 1 3 -1.05 13.848285 17.860846 38.076835 0 0 0
224 1 3 -1.05 18.088285 13.620847 38.076835 0 0 0
225 1 3 -1.05 16.041956 20.054518 38.076835 0 0 0
226 1 3 -1.05 20.281956 15.814517 38.076835 0 0 0
227 1 3 -1.05 13.921956 13.694517 38.003166 0 0 0
228 1 3 -1.05 15.968286 15.740847 38.003166 0 0 0
229 1 3 -1.05 18.161955 17.934517 38.003166 0 0 0
230 1 3 -1.05 20.208286 19.980846 38.003166 0 0 0
231 1 3 -1.05 20.208286 17.934517 35.956834 0 0 0
232 1 3 -1.05 18.161955 19.980846 35.956834 0 0 0
233 1 3 -1.05 15.968286 13.694517 35.956834 0 0 0
234 1 3 -1.05 13.921956 15.740847 35.956834 0 0 0
235 1 3 -1.05 18.088285 15.814517 35.883165000000005 0 0 0
236 1 3 -1.05 13.848285 20.054518 35.883165000000005 0 0 0
237 1 3 -1.05 16.041956 17.860846 35.883165000000005 0 0 0
238 1 3 -1.05 20.281956 13.620847 35.883165000000005 0 0 0
239 1 3 -1.05 18.088285 17.860846 33.836835 0 0 0
240 1 3 -1.05 16.041956 15.814517 33.836835 0 0 0
241 1 3 -1.05 20.281956 20.054518 33.836835 0 0 0
242 1 3 -1.05 13.848285 13.620847 33.836835 0 0 0
243 1 3 -1.05 18.161955 13.694517 33.763166 0 0 0
244 1 3 -1.05 15.968286 19.980846 33.763166 0 0 0
245 1 3 -1.05 20.208286 15.740847 33.763166 0 0 0
246 1 3 -1.05 13.921956 17.934517 33.763166 0 0 0
247 1 3 -1.05 15.924225 17.982992 31.797149 0 0 0
248 1 3 -1.05 18.235582 15.694258 31.689872 0 0 0
249 1 3 -1.05 13.968544 19.907223 31.689872 0 0 0
250 1 3 -1.05 20.159811 13.738578 31.797149 0 0 0
251 1 3 -1.05 20.338627 17.804174 31.753587000000003 0 0 0
252 1 3 -1.05 18.050404 20.0924 31.682315000000003 0 0 0
253 1 3 -1.05 13.771635 15.891167 31.757759 0 0 0
254 1 3 -1.05 16.057384 13.605419 31.696195000000003 0 0 0
255 1 3 -1.05 18.025089 13.567218 29.676343000000003 0 0 0
256 1 3 -1.05 20.192652 15.702962 29.557041 0 0 0
257 1 3 -1.05 16.095585 20.117714 29.676343000000003 0 0 0
258 1 3 -1.05 13.95984 17.95015 29.557041 0 0 0
259 1 3 -1.05 20.14888 20.114866 29.660438 0 0 0
260 1 3 -1.05 13.964282 13.583915 29.656181 0 0 0
261 1 3 -1.05 18.027935 17.993921 29.660438 0 0 0
262 1 3 -1.05 16.078888 15.698521 29.656181 0 0 0
263 1 3 -1.05 13.946134 15.716669 27.479845 0 0 0
264 1 3 -1.05 18.364305 19.778498 27.659145000000002 0 0 0
265 1 3 -1.05 15.760397 13.902408 27.656719000000002 0 0 0
266 1 3 -1.05 20.18211 17.960691 27.501604 0 0 0
267 1 3 -1.05 13.799244 20.161257 27.515283 0 0 0
268 1 3 -1.05 16.144835 17.820004 27.507460000000002 0 0 0
269 1 3 -1.05 20.322798 13.517967 27.507460000000002 0 0 0
270 1 3 -1.05 17.981546 15.863559 27.515283 0 0 0
271 1 2 1.575 15.914141 20.08316 56.828491 0 0 0
272 1 1 1.05 20.315001 15.676049 56.836136 0 0 0
273 1 1 1.05 13.986753 17.827803 56.836136 0 0 0
274 1 1 1.05 18.059641 13.748661 56.828491 0 0 0
275 1 2 1.575 18.081011 20.06179 54.971558 0 0 0
276 1 2 1.575 20.30854 17.834263 54.980713 0 0 0
277 1 2 1.575 18.14468 17.858347 52.85302 0 0 0
278 1 2 1.575 20.284456 19.998121 52.85302 0 0 0
279 1 2 1.575 15.963449 15.718615 53.069687 0 0 0
280 1 2 1.575 13.944186 13.699354 53.069687 0 0 0
281 1 2 1.575 20.245121 13.657681 50.760002 0 0 0
282 1 2 1.575 18.12512 15.777682 50.760002 0 0 0
283 1 2 1.575 13.88512 20.017681 50.760002 0 0 0
284 1 2 1.575 16.005121 17.89768 50.760002 0 0 0
285 1 2 1.575 16.005121 20.017681 48.639999 0 0 0
286 1 2 1.575 20.245121 15.777682 48.639999 0 0 0
287 1 2 1.575 13.88512 17.89768 48.639999 0 0 0
288 1 2 1.575 18.12512 13.657681 48.639999 0 0 0
289 1 1 1.05 16.005121 13.657681 46.52 0 0 0
290 1 2 1.575 18.12512 20.017681 46.52 0 0 0
291 1 2 1.575 13.88512 15.777682 46.52 0 0 0
292 1 2 1.575 20.245121 17.89768 46.52 0 0 0
293 1 2 1.575 18.12512 17.89768 44.400002 0 0 0
294 1 2 1.575 13.88512 13.657681 44.400002 0 0 0
295 1 2 1.575 20.245121 20.017681 44.400002 0 0 0
296 1 1 1.05 16.005121 15.777682 44.400002 0 0 0
297 1 2 1.575 20.245121 13.657681 42.28 0 0 0
298 1 1 1.05 18.12512 15.777682 42.28 0 0 0
299 1 2 1.575 13.88512 20.017681 42.28 0 0 0
300 1 1 1.05 16.005121 17.89768 42.28 0 0 0
301 1 2 1.575 16.005121 20.017681 40.160001 0 0 0
302 1 2 1.575 20.245121 15.777682 40.160001 0 0 0
303 1 2 1.575 13.88512 17.89768 40.160001 0 0 0
304 1 2 1.575 18.12512 13.657681 40.160001 0 0 0
305 1 2 1.575 16.005121 13.657681 38.04 0 0 0
306 1 2 1.575 18.12512 20.017681 38.04 0 0 0
307 1 2 1.575 13.88512 15.777682 38.04 0 0 0
308 1 1 1.05 20.245121 17.89768 38.04 0 0 0
309 1 2 1.575 18.12512 17.89768 35.92 0 0 0
310 1 2 1.575 13.88512 13.657681 35.92 0 0 0
311 1 2 1.575 20.245121 20.017681 35.92 0 0 0
312 1 2 1.575 16.005121 15.777682 35.92 0 0 0
313 1 2 1.575 20.245121 13.657681 33.800001 0 0 0
314 1 1 1.05 18.12512 15.777682 33.800001 0 0 0
315 1 2 1.575 13.88512 20.017681 33.800001 0 0 0
316 1 1 1.05 16.005121 17.89768 33.800001 0 0 0
317 1 1 1.05 15.965785 20.037243 31.706983 0 0 0
318 1 1 1.05 20.286793 15.836747 31.490314 0 0 0
319 1 3 -1.05 3.324535 -3.097797 44.363167 0 0 0
320 1 3 -1.05 -0.915464 1.142202 44.363167 0 0 0
321 1 3 -1.05 -3.109135 3.335873 44.363167 0 0 0
322 1 3 -1.05 1.130865 -0.904127 44.363167 0 0 0
323 1 3 -1.05 -3.035464 -0.977797 44.436836 0 0 0
324 1 3 -1.05 -0.989134 -3.024127 44.436836 0 0 0
325 1 3 -1.05 1.204535 3.262203 44.436836 0 0 0
326 1 3 -1.05 3.250866 1.215872 44.436836 0 0 0
327 1 3 -1.05 3.250866 3.262203 46.483166 0 0 0
328 1 3 -1.05 1.204535 1.215872 46.483166 0 0 0
329 1 3 -1.05 -0.989134 -0.977797 46.483166 0 0 0
330 1 3 -1.05 -3.035464 -3.024127 46.483166 0 0 0
331 1 3 -1.05 3.324535 -0.904127 46.556835 0 0 0
332 1 3 -1.05 -0.915464 3.335873 46.556835 0 0 0
333 1 3 -1.05 1.130865 -3.097797 46.556835 0 0 0
334 1 3 -1.05 -3.109135 1.142202 46.556835 0 0 0
335 1 3 -1.05 -3.109135 -0.904127 48.603165 0 0 0
336 1 3 -1.05 3.324535 1.142202 48.603165 0 0 0
337 1 3 -1.05 -0.915464 -3.097797 48.603165 0 0 0
338 1 3 -1.05 1.130865 3.335873 48.603165 0 0 0
339 1 3 -1.05 -0.989134 1.215872 48.676834 0 0 0
340 1 3 -1.05 1.204535 -0.977797 48.676834 0 0 0
341 1 3 -1.05 3.250866 -3.024127 48.676834 0 0 0
342 1 3 -1.05 -3.035464 3.262203 48.676834 0 0 0
343 1 3 -1.05 -3.035464 1.215872 50.723167 0 0 0
344 1 3 -1.05 3.250866 -0.977797 50.723167 0 0 0
345 1 3 -1.05 1.204535 -3.024127 50.723167 0 0 0
346 1 3 -1.05 -0.989134 3.262203 50.723167 0 0 0
347 1 3 -1.05 -3.109135 -3.097797 50.796833 0 0 0
348 1 3 -1.05 3.324535 3.335873 50.796833 0 0 0
349 1 3 -1.05 1.130865 1.142202 50.796833 0 0 0
350 1 3 -1.05 -0.915464 -0.904127 50.796833 0 0 0
351 1 3 -1.05 1.05724 -0.857539 52.870129 0 0 0
352 1 3 -1.05 3.368597 -3.146274 52.762852 0 0 0
353 1 3 -1.05 -0.866989 1.098141 52.762852 0 0 0
354 1 3 -1.05 -3.155724 3.409498 52.870129 0 0 0
355 1 3 -1.05 3.235437 1.2313 52.863804 0 0 0
356 1 3 -1.05 -1.045805 -2.967456 52.806412 0 0 0
357 1 3 -1.05 1.242418 3.224319 52.877686 0 0 0
358 1 3 -1.05 -2.958814 -1.054448 52.802242 0 0 0
359 1 3 -1.05 -0.89983 -0.866242 55.00296 0 0 0
360 1 3 -1.05 1.267733 1.269503 54.883659 0 0 0
361 1 3 -1.05 -3.147019 -3.113431 55.00296 0 0 0
362 1 3 -1.05 3.197237 3.199007 54.883659 0 0 0
363 1 3 -1.05 -3.151461 1.252804 54.903824 0 0 0
364 1 3 -1.05 -0.856058 3.201853 54.899567 0 0 0
365 1 3 -1.05 3.213934 -0.861801 54.903824 0 0 0
366 1 3 -1.05 1.264887 -3.157204 54.899567 0 0 0
367 1 3 -1.05 -0.88929 -3.123973 57.058395 0 0 0
368 1 3 -1.05 -3.133312 -0.87995 57.080154 0 0 0
369 1 3 -1.05 0.928514 3.538223 56.900856 0 0 0
370 1 3 -1.05 3.532425 0.934313 56.903282 0 0 0
371 1 3 -1.05 3.147985 -2.983286 57.052536 0 0 0
372 1 3 -1.05 -2.986423 3.155464 57.044724 0 0 0
373 1 3 -1.05 1.311274 -1.026839 57.044724 0 0 0
374 1 3 -1.05 -1.029976 1.318752 57.052536 0 0 0
375 1 2 1.575 10.585733 -2.117549 28.398071 0 0 0
376 1 2 1.575 6.582998 2.359716 28.398071 0 0 0
377 1 2 1.575 12.825121 -4.117913 30.71022 0 0 0
378 1 1 1.05 8.583361 0.120328 30.71022 0 0 0
379 1 2 1.575 6.413539 -1.94809 32.757854 0 0 0
380 1 2 1.575 10.72917 2.21628 32.713846000000004 0 0 0
381 1 1 1.05 8.58641 -4.120962 34.860002 0 0 0
382 1 2 1.575 4.346411 0.119038 34.860002 0 0 0
383 1 2 1.575 10.706411 -2.000962 36.980001 0 0 0
384 1 2 1.575 6.46641 2.239038 36.980001 0 0 0
385 1 1 1.05 4.346411 -4.120962 39.1 0 0 0
386 1 2 1.575 8.58641 0.119038 39.1 0 0 0
387 1 2 1.575 6.46641 -2.000962 41.220001 0 0 0
388 1 2 1.575 10.706411 2.239038 41.220001 0 0 0
389 1 2 1.575 13.826055 17.856009 31.490314 0 0 0
390 1 1 1.05 18.105562 13.697018 31.706983 0 0 0
391 1 2 1.575 15.941701 13.721102 29.579286000000003 0 0 0
392 1 1 1.05 18.169231 19.973572 29.588438 0 0 0
393 1 2 1.575 18.190599 17.806702 27.731513 0 0 0
394 1 2 1.575 20.3361 19.952202 27.731513 0 0 0
395 1 2 1.575 15.935241 15.879315 27.723869 0 0 0
396 1 2 1.575 13.783487 13.727561 27.723869 0 0 0
397 1 2 1.575 14.941089 14.721713 56.100471 0 0 0
398 1 2 1.575 12.829152 16.833651 28.459527 0 0 0
399 1 1 1.05 17.185801 16.954268 56.161926 0 0 0
400 1 1 1.05 21.188536 20.957003 56.161926 0 0 0
401 1 2 1.575 14.946411 18.954634 53.849781 0 0 0
402 1 2 1.575 19.188169 14.716391 53.849781 0 0 0
403 1 2 1.575 12.877992 16.784809 51.802147 0 0 0
404 1 2 1.575 17.042362 12.620439 51.846153 0 0 0
405 1 1 1.05 19.185122 18.957682 49.700001 0 0 0
406 1 1 1.05 14.94512 14.717682 49.700001 0 0 0
407 1 1 1.05 17.065121 16.837683 47.580002 0 0 0
408 1 2 1.575 12.825121 12.597682 47.580002 0 0 0
409 1 2 1.575 14.94512 18.957682 45.459999 0 0 0
410 1 2 1.575 19.185122 14.717682 45.459999 0 0 0
411 1 2 1.575 12.825121 16.837683 43.34 0 0 0
412 1 2 1.575 17.065121 12.597682 43.34 0 0 0
413 1 2 1.575 8.58641 -4.120962 43.34 0 0 0
414 1 2 1.575 4.346411 0.119038 43.34 0 0 0
415 1 2 1.575 10.706411 -2.000962 45.459999 0 0 0
416 1 2 1.575 6.46641 2.239038 45.459999 0 0 0
417 1 2 1.575 4.346411 -4.120962 47.580002 0 0 0
418 1 2 1.575 8.58641 0.119038 47.580002 0 0 0
419 1 2 1.575 6.46641 -2.000962 49.700001 0 0 0
420 1 1 1.05 10.706411 2.239038 49.700001 0 0 0
421 1 2 1.575 8.563652 -4.098205 51.846153 0 0 0
422 1 2 1.575 4.399282 0.066166 51.802147 0 0 0
423 1 1 1.05 10.709459 -2.002253 53.849781 0 0 0
424 1 2 1.575 6.467701 2.235989 53.849781 0 0 0
425 1 1 1.05 12.709825 4.238359 56.161926 0 0 0
426 1 2 1.575 8.70709 0.235624 56.161926 0 0 0
427 1 2 1.575 4.350442 0.115007 28.459527 0 0 0
428 1 1 1.05 6.462379 -1.996931 56.100471 0 0 0
429 1 2 1.575 5.304777 -2.991083 27.723869 0 0 0
430 1 2 1.575 7.456531 -0.839329 27.723869 0 0 0
431 1 2 1.575 11.857389 3.233557 27.731513 0 0 0
432 1 2 1.575 9.711889 1.088058 27.731513 0 0 0
433 1 2 1.575 9.690521 3.254927 29.588438 0 0 0
434 1 2 1.575 7.462991 -2.997542 29.579286000000003 0 0 0
435 1 2 1.575 9.626852 -3.021626 31.706983 0 0 0
436 1 2 1.575 5.347345 1.137365 31.490314 0 0 0
437 1 2 1.575 11.808082 -0.881897 31.490314 0 0 0
438 1 2 1.575 7.487075 3.318598 31.706983 0 0 0
439 1 2 1.575 7.526411 1.179037 33.800001 0 0 0
440 1 2 1.575 5.40641 3.299038 33.800001 0 0 0
441 1 2 1.575 9.64641 -0.940962 33.800001 0 0 0
442 1 2 1.575 11.766411 -3.060963 33.800001 0 0 0
443 1 2 1.575 7.526411 -0.940962 35.92 0 0 0
444 1 2 1.575 11.766411 3.299038 35.92 0 0 0
445 1 2 1.575 5.40641 -3.060963 35.92 0 0 0
446 1 2 1.575 9.64641 1.179037 35.92 0 0 0
447 1 2 1.575 11.766411 1.179037 38.04 0 0 0
448 1 2 1.575 5.40641 -0.940962 38.04 0 0 0
449 1 2 1.575 9.64641 3.299038 38.04 0 0 0
450 1 2 1.575 7.526411 -3.060963 38.04 0 0 0
451 1 2 1.575 9.64641 -3.060963 40.160001 0 0 0
452 1 2 1.575 5.40641 1.179037 40.160001 0 0 0
453 1 1 1.05 11.766411 -0.940962 40.160001 0 0 0
454 1 2 1.575 7.526411 3.299038 40.160001 0 0 0
455 1 1 1.05 7.526411 1.179037 42.28 0 0 0
456 1 1 1.05 5.40641 3.299038 42.28 0 0 0
457 1 2 1.575 9.64641 -0.940962 42.28 0 0 0
458 1 2 1.575 11.766411 -3.060963 42.28 0 0 0
459 1 1 1.05 19.185122 18.957682 41.220001 0 0 0
460 1 1 1.05 14.94512 14.717682 41.220001 0 0 0
461 1 2 1.575 17.065121 16.837683 39.1 0 0 0
462 1 2 1.575 12.825121 12.597682 39.1 0 0 0
463 1 2 1.575 14.94512 18.957682 36.980001 0 0 0
464 1 2 1.575 19.185122 14.717682 36.980001 0 0 0
465 1 1 1.05 12.825121 16.837683 34.860002 0 0 0
466 1 2 1.575 17.065121 12.597682 34.860002 0 0 0
467 1 2 1.575 19.20788 18.934923 32.713846000000004 0 0 0
468 1 2 1.575 14.892249 14.770554 32.757854 0 0 0
469 1 2 1.575 17.062071 16.838972 30.71022 0 0 0
470 1 2 1.575 21.303831 12.600731 30.71022 0 0 0
471 1 2 1.575 15.061708 19.07836 28.398071 0 0 0
472 1 2 1.575 19.064444 14.601095 28.398071 0 0 0
473 1 3 -1.05 7.448734 18.037395 57.052536 0 0 0
474 1 3 -1.05 9.789984 15.691805 57.044724 0 0 0
475 1 3 -1.05 5.492287 19.874107 57.044724 0 0 0
476 1 3 -1.05 11.626695 13.735358 57.052536 0 0 0
477 1 3 -1.05 12.011135 17.652958 56.903282 0 0 0
478 1 3 -1.05 9.407224 20.256866 56.900856 0 0 0
479 1 3 -1.05 5.345398 15.838694 57.080154 0 0 0
480 1 3 -1.05 7.58942 13.594671 57.058395 0 0 0
481 1 3 -1.05 9.743597 13.56144 54.899567 0 0 0
482 1 3 -1.05 11.692644 15.856843 54.903824 0 0 0
483 1 3 -1.05 7.622652 19.920498 54.899567 0 0 0
484 1 3 -1.05 5.327249 17.971449 54.903824 0 0 0
485 1 3 -1.05 11.675947 19.91765 54.883659 0 0 0
486 1 3 -1.05 5.331691 13.605213 55.00296 0 0 0
487 1 3 -1.05 9.746443 17.988148 54.883659 0 0 0
488 1 3 -1.05 7.57888 15.852402 55.00296 0 0 0
489 1 3 -1.05 5.519896 15.664196 52.802242 0 0 0
490 1 3 -1.05 9.721128 19.942963 52.877686 0 0 0
491 1 3 -1.05 7.432905 13.751188 52.806412 0 0 0
492 1 3 -1.05 11.714147 17.949944 52.863804 0 0 0
493 1 3 -1.05 5.322986 20.128141 52.870129 0 0 0
494 1 3 -1.05 7.611721 17.816786 52.762852 0 0 0
495 1 3 -1.05 11.847307 13.57237 52.762852 0 0 0
496 1 3 -1.05 9.53595 15.861105 52.870129 0 0 0
497 1 3 -1.05 7.563246 15.814517 50.796833 0 0 0
498 1 3 -1.05 9.609575 17.860846 50.796833 0 0 0
499 1 3 -1.05 11.803245 20.054518 50.796833 0 0 0
500 1 3 -1.05 5.369575 13.620847 50.796833 0 0 0
501 1 3 -1.05 7.489576 19.980846 50.723167 0 0 0
502 1 3 -1.05 9.683245 13.694517 50.723167 0 0 0
503 1 3 -1.05 11.729576 15.740847 50.723167 0 0 0
504 1 3 -1.05 5.443246 17.934517 50.723167 0 0 0
505 1 3 -1.05 5.443246 19.980846 48.676834 0 0 0
506 1 3 -1.05 11.729576 13.694517 48.676834 0 0 0
507 1 2 1.575 7.526411 -0.940962 44.400002 0 0 0
508 1 2 1.575 11.766411 3.299038 44.400002 0 0 0
509 1 2 1.575 5.40641 -3.060963 44.400002 0 0 0
510 1 2 1.575 9.64641 1.179037 44.400002 0 0 0
511 1 2 1.575 11.766411 1.179037 46.52 0 0 0
512 1 1 1.05 5.40641 -0.940962 46.52 0 0 0
513 1 2 1.575 9.64641 3.299038 46.52 0 0 0
514 1 1 1.05 7.526411 -3.060963 46.52 0 0 0
515 1 1 1.05 9.64641 -3.060963 48.639999 0 0 0
516 1 2 1.575 5.40641 1.179037 48.639999 0 0 0
517 1 1 1.05 11.766411 -0.940962 48.639999 0 0 0
518 1 2 1.575 7.526411 3.299038 48.639999 0 0 0
519 1 2 1.575 7.526411 1.179037 50.760002 0 0 0
520 1 2 1.575 5.40641 3.299038 50.760002 0 0 0
521 1 2 1.575 9.64641 -0.940962 50.760002 0 0 0
522 1 2 1.575 11.766411 -3.060963 50.760002 0 0 0
523 1 2 1.575 5.465476 -3.01929 53.069687 0 0 0
524 1 2 1.575 7.484739 -1.000029 53.069687 0 0 0
525 1 1 1.05 11.805746 3.279478 52.85302 0 0 0
526 1 2 1.575 9.66597 1.139702 52.85302 0 0 0
527 1 2 1.575 11.82983 1.115618 54.980713 0 0 0
528 1 2 1.575 9.6023 3.343147 54.971558 0 0 0
529 1 2 1.575 9.580931 -2.969983 56.828491 0 0 0
530 1 2 1.575 5.508043 1.109159 56.836136 0 0 0
531 1 2 1.575 11.83629 -1.042595 56.836136 0 0 0
532 1 2 1.575 7.435431 3.364517 56.828491 0 0 0
533 1 3 -1.05 9.502836 -0.855085 27.515283 0 0 0
534 1 3 -1.05 11.844087 -3.200677 27.507460000000002 0 0 0
535 1 3 -1.05 7.666125 1.10136 27.507460000000002 0 0 0
536 1 3 -1.05 5.320534 3.442612 27.515283 0 0 0
537 1 3 -1.05 11.703399 1.242048 27.501604 0 0 0
538 1 3 -1.05 7.281687 -2.816236 27.656719000000002 0 0 0
539 1 3 -1.05 9.885595 3.059853 27.659145000000002 0 0 0
540 1 3 -1.05 5.467424 -1.001975 27.479845 0 0 0
541 1 3 -1.05 7.600178 -1.020123 29.656181 0 0 0
542 1 3 -1.05 9.549225 1.275278 29.660438 0 0 0
543 1 3 -1.05 5.485572 -3.134729 29.656181 0 0 0
544 1 3 -1.05 11.67017 3.396223 29.660438 0 0 0
545 1 3 -1.05 5.48113 1.231506 29.557041 0 0 0
546 1 3 -1.05 7.616875 3.399069 29.676343000000003 0 0 0
547 1 3 -1.05 11.713941 -1.015682 29.557041 0 0 0
548 1 3 -1.05 9.546379 -3.151426 29.676343000000003 0 0 0
549 1 3 -1.05 7.578674 -3.113225 31.696195000000003 0 0 0
550 1 3 -1.05 5.292925 -0.827477 31.757759 0 0 0
551 1 3 -1.05 9.571693 3.373756 31.682315000000003 0 0 0
552 1 3 -1.05 11.859917 1.085531 31.753587000000003 0 0 0
553 1 3 -1.05 11.681101 -2.980066 31.797149 0 0 0
554 1 3 -1.05 5.489834 3.188578 31.689872 0 0 0
555 1 3 -1.05 9.756872 -1.024386 31.689872 0 0 0
556 1 3 -1.05 7.445515 1.264349 31.797149 0 0 0
557 1 3 -1.05 5.443246 1.215872 33.763166 0 0 0
558 1 3 -1.05 11.729576 -0.977797 33.763166 0 0 0
559 1 3 -1.05 7.489576 3.262203 33.763166 0 0 0
560 1 3 -1.05 9.683245 -3.024127 33.763166 0 0 0
561 1 3 -1.05 5.369575 -3.097797 33.836835 0 0 0
562 1 3 -1.05 11.803245 3.335873 33.836835 0 0 0
563 1 3 -1.05 7.563246 -0.904127 33.836835 0 0 0
564 1 3 -1.05 9.609575 1.142202 33.836835 0 0 0
565 1 3 -1.05 11.803245 -3.097797 35.883165000000005 0 0 0
566 1 3 -1.05 7.563246 1.142202 35.883165000000005 0 0 0
567 1 3 -1.05 5.369575 3.335873 35.883165000000005 0 0 0
568 1 3 -1.05 9.609575 -0.904127 35.883165000000005 0 0 0
569 1 3 -1.05 5.443246 -0.977797 35.956834 0 0 0
570 1 3 -1.05 7.489576 -3.024127 35.956834 0 0 0
571 1 3 -1.05 9.683245 3.262203 35.956834 0 0 0
572 1 3 -1.05 11.729576 1.215872 35.956834 0 0 0
573 1 3 -1.05 11.729576 3.262203 38.003166 0 0 0
574 1 3 -1.05 9.683245 1.215872 38.003166 0 0 0
575 1 3 -1.05 7.489576 -0.977797 38.003166 0 0 0
576 1 3 -1.05 5.443246 -3.024127 38.003166 0 0 0
577 1 3 -1.05 11.803245 -0.904127 38.076835 0 0 0
578 1 3 -1.05 7.563246 3.335873 38.076835 0 0 0
579 1 3 -1.05 9.609575 -3.097797 38.076835 0 0 0
580 1 3 -1.05 5.369575 1.142202 38.076835 0 0 0
581 1 3 -1.05 5.369575 -0.904127 40.123167 0 0 0
582 1 3 -1.05 11.803245 1.142202 40.123167 0 0 0
583 1 3 -1.05 7.563246 -3.097797 40.123167 0 0 0
584 1 3 -1.05 9.609575 3.335873 40.123167 0 0 0
585 1 3 -1.05 7.489576 1.215872 40.196836000000005 0 0 0
586 1 3 -1.05 9.683245 -0.977797 40.196836000000005 0 0 0
587 1 3 -1.05 11.729576 -3.024127 40.196836000000005 0 0 0
588 1 3 -1.05 5.443246 3.262203 40.196836000000005 0 0 0
589 1 3 -1.05 5.443246 1.215872 42.243165000000005 0 0 0
590 1 3 -1.05 11.729576 -0.977797 42.243165000000005 0 0 0
591 1 3 -1.05 9.683245 -3.024127 42.243165000000005 0 0 0
592 1 3 -1.05 7.489576 3.262203 42.243165000000005 0 0 0
593 1 3 -1.05 5.369575 -3.097797 42.316835 0 0 0
594 1 3 -1.05 11.803245 3.335873 42.316835 0 0 0
595 1 3 -1.05 7.563246 -0.904127 42.316835 0 0 0
596 1 3 -1.05 9.609575 1.142202 42.316835 0 0 0
597 1 3 -1.05 9.683245 15.740847 48.676834 0 0 0
598 1 3 -1.05 7.489576 17.934517 48.676834 0 0 0
599 1 3 -1.05 9.609575 20.054518 48.603165 0 0 0
600 1 3 -1.05 7.563246 13.620847 48.603165 0 0 0
601 1 3 -1.05 11.803245 17.860846 48.603165 0 0 0