LAMMPS data file. CGCMM style. atom_style full generated by VMD/TopoTools v1.8 on Thu Sep 22 16:00:36 CEST 2022
 5430 atoms
 0 bonds
 0 angles
 0 dihedrals
 0 impropers
 4 atom types
 0 bond types
 0 angle types
 0 dihedral types
 0 improper types
 2.192877 31.975895  xlo xhi
 -0.775550 30.112649  ylo yhi
 -66.109021 133.890979  zlo zhi

# Pair Coeffs
#
# 1  1
# 2  2
# 3  3
# 4  4

 Atoms # full

1 1 2 1.280500 14.791908 21.987211 3.281768 # 2 
2 1 2 1.280500 29.682013 6.543717 3.267821 # 2 
3 1 2 1.280500 29.684702 27.128605 3.273772 # 2 
4 1 2 1.280500 26.707790 21.989342 3.281113 # 2 
5 1 2 1.280500 26.711010 11.696961 3.273696 # 2 
6 1 2 1.280500 8.837940 1.391160 3.267704 # 2 
7 1 2 1.280500 2.882251 11.696099 3.277643 # 2 
8 1 2 1.280500 20.748892 21.990004 3.278160 # 2 
9 1 2 1.280500 17.772900 16.845510 3.279216 # 2 
10 1 2 1.280500 14.792687 1.392089 3.267023 # 2 
11 1 2 1.280500 11.817587 16.844986 3.282806 # 2 
12 1 2 1.280500 23.729839 6.544719 3.266233 # 2 
13 1 2 1.280500 11.814522 6.541991 3.267305 # 2 
14 1 2 1.280500 8.837010 21.985498 3.280072 # 2 
15 1 2 1.280500 20.752178 11.697653 3.270370 # 2 
16 1 2 1.280500 2.878078 21.985983 3.281634 # 2 
17 1 2 1.280500 17.772629 6.545799 3.265135 # 2 
18 1 2 1.280500 23.727919 27.132441 3.273159 # 2 
19 1 2 1.280500 20.750937 1.393230 3.265175 # 2 
20 1 2 1.280500 26.707964 1.391047 3.268673 # 2 
21 1 2 1.280500 8.838657 11.696777 3.273945 # 2 
22 1 2 1.280500 17.770657 27.132610 3.270377 # 2 
23 1 2 1.280500 14.795980 11.695835 3.273037 # 2 
24 1 2 1.280500 5.861592 16.843277 3.283824 # 2 
25 1 2 1.280500 11.815379 27.128531 3.273173 # 2 
26 1 2 1.280500 29.687214 16.843811 3.280678 # 2 
27 1 2 1.280500 2.879725 1.388255 3.268097 # 2 
28 1 2 1.280500 5.859601 27.129711 3.272450 # 2 
29 1 2 1.280500 5.855034 6.541590 3.268690 # 2 
30 1 2 1.280500 23.730938 16.846388 3.278967 # 2 
31 1 3 -1.020000 22.260216 22.855499 4.026606 # 3 
32 1 3 -1.020000 28.174274 27.997784 4.019886 # 3 
33 1 3 -1.020000 28.219469 12.564448 4.025208 # 3 
34 1 3 -1.020000 31.191961 7.411053 4.017328 # 3 
35 1 3 -1.020000 25.199226 12.563728 4.020627 # 3 
36 1 3 -1.020000 4.392614 12.563205 4.026102 # 3 
37 1 3 -1.020000 29.688692 15.103052 4.030889 # 3 
38 1 3 -1.020000 23.727901 25.394016 4.028259 # 3 
39 1 3 -1.020000 31.156004 12.562708 4.028563 # 3 
40 1 3 -1.020000 25.238274 7.412661 4.017762 # 3 
41 1 3 -1.020000 26.707306 9.954136 4.019967 # 3 
42 1 3 -1.020000 10.347157 22.851509 4.030162 # 3 
43 1 3 -1.020000 17.772026 4.803187 4.011564 # 3 
44 1 3 -1.020000 22.262543 12.565192 4.018748 # 3 
45 1 3 -1.020000 22.220121 17.712099 4.027730 # 3 
46 1 3 -1.020000 29.683706 25.391817 4.032892 # 3 
47 1 3 -1.020000 10.347772 2.259871 4.015306 # 3 
48 1 3 -1.020000 31.197483 17.708433 4.031622 # 3 
49 1 3 -1.020000 29.684408 4.801254 4.015452 # 3 
50 1 3 -1.020000 2.883390 15.123354 4.075564 # 3 
51 1 3 -1.020000 16.263136 17.709789 4.031692 # 3 
52 1 3 -1.020000 16.261887 7.411938 4.014847 # 3 
53 1 3 -1.020000 26.707804 -0.349362 4.019579 # 3 
54 1 3 -1.020000 5.857444 9.975165 4.064089 # 3 
55 1 3 -1.020000 14.793569 20.247782 4.035633 # 3 
56 1 3 -1.020000 10.348938 12.563370 4.022855 # 3 
57 1 3 -1.020000 10.307702 17.709238 4.034973 # 3 
58 1 3 -1.020000 25.196114 22.855181 4.028065 # 3 
59 1 3 -1.020000 25.239594 27.998648 4.019932 # 3 
60 1 3 -1.020000 28.218182 22.853575 4.032277 # 3 
61 1 3 -1.020000 13.327942 17.709530 4.033700 # 3 
62 1 3 -1.020000 31.152836 2.258646 4.014218 # 3 
63 1 3 -1.020000 13.283270 2.260321 4.016008 # 3 
64 1 3 -1.020000 4.390140 22.851700 4.027866 # 3 
65 1 3 -1.020000 17.769722 25.394436 4.026554 # 3 
66 1 3 -1.020000 7.370143 27.998701 4.018286 # 3 
67 1 3 -1.020000 23.731201 15.104215 4.026172 # 3 
68 1 3 -1.020000 11.815259 4.800761 4.016551 # 3 
69 1 3 -1.020000 5.859272 -0.328522 4.061669 # 3 
70 1 3 -1.020000 4.390041 2.257849 4.013908 # 3 
71 1 3 -1.020000 4.348742 27.996811 4.020180 # 3 
72 1 3 -1.020000 28.174004 7.413662 4.017041 # 3 
73 1 3 -1.020000 8.837868 20.247375 4.036449 # 3 
74 1 3 -1.020000 20.750534 20.250750 4.032021 # 3 
75 1 3 -1.020000 4.350127 17.708336 4.031636 # 3 
76 1 3 -1.020000 23.729191 9.976562 4.061752 # 3 
77 1 3 -1.020000 16.305332 12.563210 4.022518 # 3 
78 1 3 -1.020000 22.219784 7.413816 4.013610 # 3 
79 1 3 -1.020000 19.283892 17.711819 4.027351 # 3 
80 1 3 -1.020000 2.880619 -0.352017 4.019890 # 3 
81 1 3 -1.020000 2.880424 20.246529 4.034697 # 3 
82 1 3 -1.020000 26.709887 15.125330 4.071809 # 3 
83 1 3 -1.020000 2.879208 9.952170 4.020794 # 3 
84 1 3 -1.020000 14.793094 4.824423 4.059084 # 3 
85 1 3 -1.020000 22.261713 2.260962 4.012752 # 3 
86 1 3 -1.020000 28.176680 17.710257 4.029529 # 3 
87 1 3 -1.020000 7.325700 22.851946 4.027548 # 3 
88 1 3 -1.020000 16.303288 2.261581 4.012362 # 3 
89 1 3 -1.020000 7.372277 17.709070 4.032439 # 3 
90 1 3 -1.020000 20.750477 9.955349 4.017599 # 3 
91 1 3 -1.020000 31.151995 22.853260 4.031737 # 3 
92 1 3 -1.020000 14.791176 25.412825 4.070333 # 3 
93 1 3 -1.020000 19.239508 2.261483 4.010491 # 3 
94 1 3 -1.020000 29.684469 9.976810 4.066068 # 3 
95 1 3 -1.020000 19.237814 22.855698 4.026093 # 3 
96 1 3 -1.020000 13.286053 12.561837 4.023705 # 3 
97 1 3 -1.020000 10.305359 27.998089 4.019735 # 3 
98 1 3 -1.020000 7.366031 7.410001 4.015041 # 3 
99 1 3 -1.020000 13.324035 7.411023 4.015713 # 3 
100 1 3 -1.020000 14.793507 9.951947 4.016647 # 3 
101 1 3 -1.020000 19.241920 12.563911 4.020477 # 3 
102 1 3 -1.020000 14.793170 -0.348472 4.018177 # 3 
103 1 3 -1.020000 11.817879 15.102474 4.029223 # 3 
104 1 3 -1.020000 13.282424 22.853395 4.031624 # 3 
105 1 3 -1.020000 17.771351 20.269993 4.074855 # 3 
106 1 3 -1.020000 20.751333 4.824690 4.055926 # 3 
107 1 3 -1.020000 11.815681 -0.326912 4.062689 # 3 
108 1 3 -1.020000 23.730051 -0.326563 4.061757 # 3 
109 1 3 -1.020000 7.326674 2.259237 4.013639 # 3 
110 1 3 -1.020000 25.241198 17.711056 4.029481 # 3 
111 1 3 -1.020000 23.729990 20.270571 4.074260 # 3 
112 1 3 -1.020000 31.195919 27.996563 4.020042 # 3 
113 1 3 -1.020000 4.345842 7.411010 4.016128 # 3 
114 1 3 -1.020000 16.302773 22.854784 4.027746 # 3 
115 1 3 -1.020000 23.729897 4.802273 4.013623 # 3 
116 1 3 -1.020000 5.857780 4.799209 4.015421 # 3 
117 1 3 -1.020000 29.686527 20.269085 4.077704 # 3 
118 1 3 -1.020000 26.708651 20.249495 4.034020 # 3 
119 1 3 -1.020000 20.750784 -0.346793 4.016987 # 3 
120 1 3 -1.020000 8.835855 9.952195 4.015996 # 3 
121 1 3 -1.020000 8.837735 -0.349401 4.018612 # 3 
122 1 3 -1.020000 7.329448 12.562342 4.026468 # 3 
123 1 3 -1.020000 26.706648 25.412086 4.072110 # 3 
124 1 3 -1.020000 19.281254 28.000996 4.017321 # 3 
125 1 3 -1.020000 11.813763 25.390751 4.029413 # 3 
126 1 3 -1.020000 22.217131 28.000744 4.018728 # 3 
127 1 3 -1.020000 20.748682 25.415194 4.068135 # 3 
128 1 3 -1.020000 19.283686 7.413501 4.012312 # 3 
129 1 3 -1.020000 8.837031 4.821898 4.058930 # 3 
130 1 3 -1.020000 8.836092 25.411459 4.069616 # 3 
131 1 3 -1.020000 25.198137 2.260749 4.015079 # 3 
132 1 3 -1.020000 16.259451 27.999887 4.017102 # 3 
133 1 3 -1.020000 17.771336 -0.325767 4.059539 # 3 
134 1 3 -1.020000 11.816534 20.267759 4.079124 # 3 
135 1 3 -1.020000 20.751919 15.126054 4.068767 # 3 
136 1 3 -1.020000 14.795551 15.124491 4.073394 # 3 
137 1 3 -1.020000 5.859741 20.266487 4.076766 # 3 
138 1 3 -1.020000 29.685751 -0.329088 4.062833 # 3 
139 1 3 -1.020000 2.879505 4.822052 4.058662 # 3 
140 1 3 -1.020000 28.217896 2.259694 4.016339 # 3 
141 1 3 -1.020000 5.862007 15.102598 4.033913 # 3 
142 1 3 -1.020000 17.773161 15.103227 4.026301 # 3 
143 1 3 -1.020000 17.772356 9.976126 4.062109 # 3 
144 1 3 -1.020000 8.839434 15.123921 4.075086 # 3 
145 1 3 -1.020000 13.324859 27.998678 4.019583 # 3 
146 1 3 -1.020000 11.814907 9.975534 4.061809 # 3 
147 1 3 -1.020000 26.707691 4.825164 4.059540 # 3 
148 1 3 -1.020000 10.303480 7.411097 4.012328 # 3 
149 1 3 -1.020000 5.857244 25.390919 4.027042 # 3 
150 1 3 -1.020000 2.878438 25.410919 4.071491 # 3 
151 1 1 1.513000 28.211859 14.260791 4.967135 # 1 
152 1 1 1.513000 14.795783 16.855112 4.971157 # 1 
153 1 1 1.513000 31.163706 14.259815 4.969146 # 1 
154 1 1 1.513000 7.361678 29.696770 4.956704 # 1 
155 1 1 1.513000 31.186001 9.109180 4.957788 # 1 
156 1 1 1.513000 22.250959 24.553038 4.965733 # 1 
157 1 1 1.513000 16.270134 19.406593 4.972277 # 1 
158 1 1 1.513000 23.727915 22.002808 4.967811 # 1 
159 1 1 1.513000 29.686218 11.708293 4.963889 # 1 
160 1 1 1.513000 23.729790 11.709269 4.957102 # 1 
161 1 1 1.513000 22.226982 19.408154 4.969002 # 1 
162 1 1 1.513000 2.882365 16.854830 4.970892 # 1 
163 1 1 1.513000 25.231499 29.697552 4.957722 # 1 
164 1 1 1.513000 10.313859 19.405785 4.974973 # 1 
165 1 1 1.513000 4.381332 3.956110 4.952552 # 1 
166 1 1 1.513000 28.183329 29.695913 4.957807 # 1 
167 1 1 1.513000 10.339515 3.957682 4.954042 # 1 
168 1 1 1.513000 7.362040 19.405405 4.973841 # 1 
169 1 1 1.513000 26.706453 27.146374 4.962148 # 1 
170 1 1 1.513000 19.246012 24.553654 4.964999 # 1 
171 1 1 1.513000 25.230801 9.111010 4.956606 # 1 
172 1 1 1.513000 11.815464 1.406483 4.955518 # 1 
173 1 1 1.513000 5.860431 11.706298 4.962068 # 1 
174 1 1 1.513000 2.880393 27.144960 4.961427 # 1 
175 1 1 1.513000 22.226225 29.699162 4.956377 # 1 
176 1 1 1.513000 17.771133 22.002966 4.967813 # 1 
177 1 1 1.513000 16.294245 24.552334 4.966168 # 1 
178 1 1 1.513000 4.357516 29.695288 4.957654 # 1 
179 1 1 1.513000 19.248163 3.960281 4.948950 # 1 
180 1 1 1.513000 25.203022 24.552328 4.967564 # 1 
181 1 1 1.513000 25.206751 14.260232 4.962997 # 1 
182 1 1 1.513000 16.296799 3.960289 4.950737 # 1 
183 1 1 1.513000 13.318839 19.405849 4.975281 # 1 
184 1 1 1.513000 4.356917 19.404701 4.972384 # 1 
185 1 1 1.513000 31.187956 19.404682 4.972772 # 1 
186 1 1 1.513000 22.226608 9.111291 4.954323 # 1 
187 1 1 1.513000 26.708799 16.856508 4.968453 # 1 
188 1 1 1.513000 10.312048 9.108703 4.953155 # 1 
189 1 1 1.513000 16.269768 9.109961 4.954674 # 1 
190 1 1 1.513000 28.182053 9.110710 4.958709 # 1 
191 1 1 1.513000 2.877925 6.555277 4.953659 # 1 
192 1 1 1.513000 8.836012 6.555669 4.951689 # 1 
193 1 1 1.513000 19.274012 29.699804 4.954711 # 1 
194 1 1 1.513000 19.274895 19.408154 4.969213 # 1 
195 1 1 1.513000 5.859142 1.405493 4.953535 # 1 
196 1 1 1.513000 7.334456 3.957387 4.952828 # 1 
197 1 1 1.513000 31.187498 29.694719 4.958233 # 1 
198 1 1 1.513000 20.748617 27.149185 4.959157 # 1 
199 1 1 1.513000 28.207899 24.550640 4.971370 # 1 
200 1 1 1.513000 11.816650 11.706760 4.959689 # 1 
201 1 1 1.513000 13.317837 29.697264 4.957004 # 1 
202 1 1 1.513000 20.751820 16.857470 4.965600 # 1 
203 1 1 1.513000 17.771816 1.408361 4.951622 # 1 
204 1 1 1.513000 10.313485 29.696953 4.957495 # 1 
205 1 1 1.513000 4.385799 14.258512 4.970130 # 1 
206 1 1 1.513000 13.291753 3.958905 4.954329 # 1 
207 1 1 1.513000 13.293508 14.258696 4.965897 # 1 
208 1 1 1.513000 10.342539 14.259027 4.966905 # 1 
209 1 1 1.513000 19.250055 14.260537 4.962271 # 1 
210 1 1 1.513000 16.298693 14.259271 4.965186 # 1 
211 1 1 1.513000 11.815004 22.000717 4.971899 # 1 
212 1 1 1.513000 28.183867 19.406437 4.971680 # 1 
213 1 1 1.513000 31.160393 3.957254 4.952276 # 1 
214 1 1 1.513000 14.793167 27.147285 4.960367 # 1 
215 1 1 1.513000 7.333368 24.549999 4.966072 # 1 
216 1 1 1.513000 10.337697 24.549759 4.967732 # 1 
217 1 1 1.513000 31.159872 24.550707 4.970740 # 1 
218 1 1 1.513000 20.751554 6.557960 4.950273 # 1 
219 1 1 1.513000 29.685747 1.404860 4.955317 # 1 
220 1 1 1.513000 17.774158 11.707918 4.958782 # 1 
221 1 1 1.513000 23.729076 1.407261 4.953375 # 1 
222 1 1 1.513000 14.793521 6.557180 4.953350 # 1 
223 1 1 1.513000 7.360585 9.108403 4.954240 # 1 
224 1 1 1.513000 22.254824 14.261116 4.961992 # 1 
225 1 1 1.513000 5.858087 21.999601 4.968675 # 1 
226 1 1 1.513000 13.289804 24.551394 4.969209 # 1 
227 1 1 1.513000 25.232222 19.407562 4.970553 # 1 
228 1 1 1.513000 19.275208 9.110334 4.954156 # 1 
229 1 1 1.513000 26.706753 6.557903 4.955440 # 1 
230 1 1 1.513000 8.839226 16.855015 4.972606 # 1 
231 1 1 1.513000 8.836835 27.145742 4.960070 # 1 
232 1 1 1.513000 25.204981 3.959951 4.952774 # 1 
233 1 1 1.513000 4.355306 9.108320 4.957189 # 1 
234 1 1 1.513000 7.337746 14.258478 4.969418 # 1 
235 1 1 1.513000 13.317517 9.109510 4.954529 # 1 
236 1 1 1.513000 22.253428 3.959657 4.951022 # 1 
237 1 1 1.513000 29.685272 22.000818 4.973226 # 1 
238 1 1 1.513000 28.209152 3.958699 4.953834 # 1 
239 1 1 1.513000 16.269663 29.698271 4.955287 # 1 
240 1 1 1.513000 4.381762 24.549538 4.966383 # 1 
241 1 3 -1.050000 29.686754 13.408454 6.171842 # 3 
242 1 3 -1.050000 28.092970 15.920487 6.273242 # 3 
243 1 3 -1.050000 26.707327 13.527200 6.268483 # 3 
244 1 3 -1.050000 26.706762 28.846849 6.164119 # 3 
245 1 3 -1.050000 28.088711 26.213541 6.271347 # 3 
246 1 3 -1.050000 22.345247 21.069345 6.273615 # 3 
247 1 3 -1.050000 2.881738 18.553526 6.176931 # 3 
248 1 3 -1.050000 23.730263 13.408070 6.165904 # 3 
249 1 3 -1.050000 17.773350 18.674967 6.273647 # 3 
250 1 3 -1.050000 19.155733 21.069300 6.273398 # 3 
251 1 3 -1.050000 14.795813 18.554787 6.178283 # 3 
252 1 3 -1.050000 4.475285 0.470386 6.260473 # 3 
253 1 3 -1.050000 26.705622 23.819162 6.273372 # 3 
254 1 3 -1.050000 29.683931 8.377178 6.261927 # 3 
255 1 3 -1.050000 28.300407 10.772614 6.265682 # 3 
256 1 3 -1.050000 23.729290 18.674906 6.272763 # 3 
257 1 3 -1.050000 20.751350 18.556753 6.173181 # 3 
258 1 3 -1.050000 14.795592 13.525210 6.269232 # 3 
259 1 3 -1.050000 11.813979 23.701300 6.174668 # 3 
260 1 3 -1.050000 23.727808 8.378706 6.259109 # 3 
261 1 3 -1.050000 16.388281 21.069029 6.275188 # 3 
262 1 3 -1.050000 31.069340 10.771103 6.265743 # 3 
263 1 3 -1.050000 17.772753 3.109684 6.155096 # 3 
264 1 3 -1.050000 13.199810 0.471789 6.261060 # 3 
265 1 3 -1.050000 11.815643 3.107418 6.159680 # 3 
266 1 3 -1.050000 5.859503 28.964649 6.261626 # 3 
267 1 3 -1.050000 19.365189 26.215597 6.267040 # 3 
268 1 3 -1.050000 14.794065 28.847765 6.162364 # 3 
269 1 3 -1.050000 8.837163 28.847088 6.162783 # 3 
270 1 3 -1.050000 17.770971 23.703348 6.171381 # 3 
271 1 3 -1.050000 29.684786 28.963982 6.262434 # 3 
272 1 3 -1.050000 5.857382 23.700415 6.171699 # 3 
273 1 3 -1.050000 13.411469 15.919173 6.274247 # 3 
274 1 3 -1.050000 16.180220 15.919751 6.273159 # 3 
275 1 3 -1.050000 11.817523 18.673344 6.278386 # 3 
276 1 3 -1.050000 19.366711 5.622480 6.254561 # 3 
277 1 3 -1.050000 8.838367 18.554993 6.179095 # 3 
278 1 3 -1.050000 26.706459 8.259075 6.161885 # 3 
279 1 3 -1.050000 5.861328 13.405766 6.172244 # 3 
280 1 3 -1.050000 13.199578 21.067320 6.278212 # 3 
281 1 3 -1.050000 28.301889 21.066193 6.277867 # 3 
282 1 3 -1.050000 7.241632 21.066908 6.276133 # 3 
283 1 3 -1.050000 20.751846 13.527716 6.265121 # 3 
284 1 3 -1.050000 4.474710 21.065573 6.276097 # 3 
285 1 3 -1.050000 22.344179 10.773763 6.260625 # 3 
286 1 3 -1.050000 20.749189 23.821445 6.268751 # 3 
287 1 3 -1.050000 17.774109 13.407494 6.167065 # 3 
288 1 3 -1.050000 20.751028 3.227509 6.253763 # 3 
289 1 3 -1.050000 23.726982 23.702642 6.172042 # 3 
290 1 3 -1.050000 10.431734 21.066708 6.277973 # 3 
291 1 3 -1.050000 5.858402 8.374866 6.259640 # 3 
292 1 3 -1.050000 2.880613 28.845247 6.164261 # 3 
293 1 3 -1.050000 7.451714 26.212667 6.267156 # 3 
294 1 3 -1.050000 2.883688 13.525704 6.272497 # 3 
295 1 3 -1.050000 23.727928 28.966389 6.261519 # 3 
296 1 3 -1.050000 7.456133 15.920403 6.275926 # 3 
297 1 3 -1.050000 22.136040 15.921477 6.269392 # 3 
298 1 3 -1.050000 2.878716 8.256022 6.160834 # 3 
299 1 3 -1.050000 11.817480 13.405986 6.169052 # 3 
300 1 3 -1.050000 29.686626 18.672676 6.275478 # 3 
301 1 3 -1.050000 8.835595 23.818708 6.270469 # 3 
302 1 3 -1.050000 8.836600 8.256496 6.157613 # 3 
303 1 3 -1.050000 26.708492 18.555086 6.175184 # 3 
304 1 3 -1.050000 2.880514 3.224584 6.256552 # 3 
305 1 3 -1.050000 31.279102 5.620037 6.257979 # 3 
306 1 3 -1.050000 29.684248 23.700573 6.177126 # 3 
307 1 3 -1.050000 14.794040 8.257793 6.159040 # 3 
308 1 3 -1.050000 19.155468 0.474670 6.257758 # 3 
309 1 3 -1.050000 26.707905 3.227225 6.257424 # 3 
310 1 3 -1.050000 4.267396 15.919366 6.275872 # 3 
311 1 3 -1.050000 10.431779 0.471876 6.261081 # 3 
312 1 3 -1.050000 20.749191 28.850075 6.161858 # 3 
313 1 3 -1.050000 23.729239 3.109188 6.157170 # 3 
314 1 3 -1.050000 29.686131 3.107218 6.158787 # 3 
315 1 3 -1.050000 31.069464 21.066067 6.277546 # 3 
316 1 3 -1.050000 19.367407 15.921756 6.269358 # 3 
317 1 3 -1.050000 8.839430 13.525928 6.270965 # 3 
318 1 3 -1.050000 25.112984 21.068127 6.274949 # 3 
319 1 3 -1.050000 4.263273 26.212051 6.269239 # 3 
320 1 3 -1.050000 4.474015 10.769602 6.263947 # 3 
321 1 3 -1.050000 5.859734 18.672390 6.276207 # 3 
322 1 3 -1.050000 22.345264 0.473794 6.259064 # 3 
323 1 3 -1.050000 5.858919 3.105519 6.157849 # 3 
324 1 3 -1.050000 25.112782 10.773116 6.262432 # 3 
325 1 3 -1.050000 25.324404 15.921371 6.271402 # 3 
326 1 3 -1.050000 7.243696 10.769029 6.263148 # 3 
327 1 3 -1.050000 31.281815 15.919816 6.275640 # 3 
328 1 3 -1.050000 16.388062 0.474158 6.259036 # 3 
329 1 3 -1.050000 8.837442 3.225440 6.257516 # 3 
330 1 3 -1.050000 13.408603 26.213974 6.269250 # 3 
331 1 3 -1.050000 16.178820 5.621838 6.257540 # 3 
332 1 3 -1.050000 2.880676 23.817938 6.272746 # 3 
333 1 3 -1.050000 7.243494 0.471425 6.260394 # 3 
334 1 3 -1.050000 13.199773 10.769935 6.261867 # 3 
335 1 3 -1.050000 14.792980 23.820570 6.272094 # 3 
336 1 3 -1.050000 4.264507 5.619734 6.257438 # 3 
337 1 3 -1.050000 16.176052 26.215443 6.267964 # 3 
338 1 3 -1.050000 25.113096 0.472563 6.260443 # 3 
339 1 3 -1.050000 22.132202 26.215609 6.267498 # 3 
340 1 3 -1.050000 11.815338 28.965366 6.261943 # 3 
341 1 3 -1.050000 10.224320 15.919287 6.275753 # 3 
342 1 3 -1.050000 22.134920 5.623008 6.255267 # 3 
343 1 3 -1.050000 10.430234 10.770577 6.261420 # 3 
344 1 3 -1.050000 20.750698 8.258787 6.157777 # 3 
345 1 3 -1.050000 31.069445 0.470336 6.260887 # 3 
346 1 3 -1.050000 25.321724 26.213612 6.270136 # 3 
347 1 3 -1.050000 31.278988 26.211740 6.270751 # 3 
348 1 3 -1.050000 14.794575 3.226748 6.257002 # 3 
349 1 3 -1.050000 10.218821 26.213257 6.268512 # 3 
350 1 3 -1.050000 17.771358 28.967556 6.259320 # 3 
351 1 3 -1.050000 10.221380 5.621218 6.257442 # 3 
352 1 3 -1.050000 19.155996 10.773100 6.261545 # 3 
353 1 3 -1.050000 25.322952 5.622220 6.258443 # 3 
354 1 3 -1.050000 7.452536 5.619775 6.257306 # 3 
355 1 3 -1.050000 28.091591 5.622334 6.258322 # 3 
356 1 3 -1.050000 28.301397 0.471310 6.260786 # 3 
357 1 3 -1.050000 13.410134 5.621598 6.258352 # 3 
358 1 3 -1.050000 17.773869 8.376652 6.257951 # 3 
359 1 3 -1.050000 16.387140 10.770156 6.262066 # 3 
360 1 3 -1.050000 11.814185 8.376030 6.257822 # 3 
361 1 2 1.574000 14.793747 21.984156 6.803349 # 2 
362 1 2 1.574000 2.880854 11.686280 6.794408 # 2 
363 1 2 1.574000 8.837456 1.388116 6.788450 # 2 
364 1 2 1.574000 26.706322 11.688582 6.793866 # 2 
365 1 2 1.574000 8.836132 21.982376 6.802738 # 2 
366 1 2 1.574000 26.707327 21.982592 6.804144 # 2 
367 1 2 1.574000 17.773851 16.836920 6.800471 # 2 
368 1 2 1.574000 5.861297 16.834991 6.804353 # 2 
369 1 2 1.574000 14.793456 11.686089 6.792466 # 2 
370 1 2 1.574000 5.858460 6.536314 6.785299 # 2 
371 1 2 1.574000 29.684511 27.128010 6.796852 # 2 
372 1 2 1.574000 17.773085 6.538328 6.785175 # 2 
373 1 2 1.574000 14.793677 1.389498 6.787036 # 2 
374 1 2 1.574000 23.727129 27.130175 6.795520 # 2 
375 1 2 1.574000 5.857635 27.128630 6.795169 # 2 
376 1 2 1.574000 11.818135 16.835339 6.804429 # 2 
377 1 2 1.574000 29.685930 6.538137 6.786394 # 2 
378 1 2 1.574000 29.687119 16.835228 6.803585 # 2 
379 1 2 1.574000 20.750132 11.689188 6.790481 # 2 
380 1 2 1.574000 2.880743 21.981516 6.804412 # 2 
381 1 2 1.574000 20.750273 21.984840 6.800152 # 2 
382 1 2 1.574000 23.729862 16.836866 6.799064 # 2 
383 1 2 1.574000 23.728664 6.539752 6.784556 # 2 
384 1 2 1.574000 20.750603 1.390237 6.784628 # 2 
385 1 2 1.574000 26.707476 1.389273 6.786546 # 2 
386 1 2 1.574000 11.813386 27.129128 6.794621 # 2 
387 1 2 1.574000 2.881060 1.387045 6.787005 # 2 
388 1 2 1.574000 17.770779 27.131542 6.793712 # 2 
389 1 2 1.574000 11.815550 6.537831 6.785275 # 2 
390 1 2 1.574000 8.836909 11.686531 6.792944 # 2 
391 1 1 1.543000 17.772442 20.270746 7.469428 # 1 
392 1 1 1.543000 29.684416 9.973133 7.459187 # 1 
393 1 1 1.543000 14.795971 15.120519 7.467250 # 1 
394 1 1 1.543000 11.815870 20.269480 7.473597 # 1 
395 1 1 1.543000 29.685963 20.267851 7.472239 # 1 
396 1 1 1.543000 5.858507 20.268379 7.471771 # 1 
397 1 1 1.543000 20.751081 15.122980 7.463329 # 1 
398 1 1 1.543000 23.728859 20.270506 7.468943 # 1 
399 1 1 1.543000 11.816030 -0.326350 7.456197 # 1 
400 1 1 1.543000 2.883015 15.121043 7.469574 # 1 
401 1 1 1.543000 17.772181 -0.324374 7.454165 # 1 
402 1 1 1.543000 2.880703 4.821136 7.451917 # 1 
403 1 1 1.543000 23.728745 -0.324913 7.455416 # 1 
404 1 1 1.543000 23.727734 9.974825 7.455732 # 1 
405 1 1 1.543000 26.707895 15.122147 7.466680 # 1 
406 1 1 1.543000 8.837597 4.822261 7.452205 # 1 
407 1 1 1.543000 29.685066 -0.327537 7.456612 # 1 
408 1 1 1.543000 5.858810 9.970704 7.457063 # 1 
409 1 1 1.543000 20.750959 4.823769 7.449683 # 1 
410 1 1 1.543000 20.748991 25.417618 7.463276 # 1 
411 1 1 1.543000 14.794826 4.822670 7.452611 # 1 
412 1 1 1.543000 26.708010 4.823518 7.452777 # 1 
413 1 1 1.543000 5.859543 -0.326810 7.456118 # 1 
414 1 1 1.543000 8.834709 25.415491 7.464137 # 1 
415 1 1 1.543000 14.792793 25.417202 7.465477 # 1 
416 1 1 1.543000 26.704952 25.415697 7.467118 # 1 
417 1 1 1.543000 2.879614 25.414371 7.466448 # 1 
418 1 1 1.543000 11.814569 9.971482 7.455342 # 1 
419 1 1 1.543000 17.772001 9.971952 7.455502 # 1 
420 1 1 1.543000 8.839994 15.121050 7.469329 # 1 
421 1 2 1.574000 29.686281 13.408034 8.076960 # 2 
422 1 2 1.574000 2.881329 18.554270 8.082236 # 2 
423 1 2 1.574000 26.706335 28.847404 8.069764 # 2 
424 1 2 1.574000 14.794550 18.554798 8.083627 # 2 
425 1 2 1.574000 23.729416 13.408391 8.071496 # 2 
426 1 2 1.574000 5.856384 23.700754 8.077034 # 2 
427 1 2 1.574000 2.880787 28.846479 8.069896 # 2 
428 1 2 1.574000 14.794119 28.849049 8.067871 # 2 
429 1 2 1.574000 17.770897 23.703451 8.076720 # 2 
430 1 2 1.574000 17.772951 3.108607 8.060734 # 2 
431 1 2 1.574000 11.814051 23.702629 8.079638 # 2 
432 1 2 1.574000 29.686522 3.106846 8.064193 # 2 
433 1 2 1.574000 8.836890 28.847750 8.068378 # 2 
434 1 2 1.574000 11.817052 13.406355 8.074486 # 2 
435 1 2 1.574000 23.727041 23.702694 8.077374 # 2 
436 1 2 1.574000 11.816276 3.107301 8.065024 # 2 
437 1 2 1.574000 26.707119 8.258683 8.067035 # 2 
438 1 2 1.574000 26.707531 18.555498 8.080542 # 2 
439 1 2 1.574000 29.683432 23.700930 8.082263 # 2 
440 1 2 1.574000 8.837748 18.554808 8.084346 # 2 
441 1 2 1.574000 23.730036 3.108952 8.062808 # 2 
442 1 2 1.574000 17.772999 13.406610 8.072639 # 2 
443 1 2 1.574000 8.836547 8.256772 8.063289 # 2 
444 1 2 1.574000 5.859970 3.106851 8.063282 # 2 
445 1 2 1.574000 5.860470 13.406324 8.077373 # 2 
446 1 2 1.574000 20.750715 18.556726 8.078676 # 2 
447 1 2 1.574000 2.879400 8.256420 8.066084 # 2 
448 1 2 1.574000 20.750221 28.849503 8.067343 # 2 
449 1 2 1.574000 14.793341 8.256874 8.064734 # 2 
450 1 2 1.574000 20.750603 8.257794 8.063574 # 2 
451 1 3 -1.050000 4.278617 24.607199 8.669345 # 3 
452 1 3 -1.050000 31.085787 19.460093 8.674015 # 3 
453 1 3 -1.050000 22.151236 14.314816 8.664467 # 3 
454 1 3 -1.050000 31.264872 14.313588 8.669770 # 3 
455 1 3 -1.050000 5.857144 21.883099 8.673672 # 3 
456 1 3 -1.050000 16.195704 14.312626 8.667890 # 3 
457 1 3 -1.050000 13.216543 19.462345 8.675249 # 3 
458 1 3 -1.050000 29.686104 1.287761 8.657699 # 3 
459 1 3 -1.050000 4.458804 19.461145 8.674041 # 3 
460 1 3 -1.050000 14.794790 16.734549 8.672269 # 3 
461 1 3 -1.050000 29.685574 11.587241 8.663777 # 3 
462 1 3 -1.050000 17.772079 21.885166 8.672051 # 3 
463 1 3 -1.050000 28.285944 19.460388 8.673684 # 3 
464 1 3 -1.050000 13.394858 14.312701 8.668227 # 3 
465 1 3 -1.050000 28.104450 24.608004 8.670602 # 3 
466 1 3 -1.050000 16.372694 19.463396 8.672060 # 3 
467 1 3 -1.050000 13.393039 24.609505 8.668338 # 3 
468 1 3 -1.050000 8.838179 1.388218 8.708484 # 3 
469 1 3 -1.050000 8.839169 16.734951 8.674152 # 3 
470 1 3 -1.050000 22.328716 19.463089 8.670257 # 3 
471 1 3 -1.050000 4.283254 14.313781 8.670619 # 3 
472 1 3 -1.050000 23.728651 21.884514 8.671848 # 3 
473 1 3 -1.050000 25.128729 9.166573 8.657201 # 3 
474 1 3 -1.050000 20.750727 6.437728 8.653556 # 3 
475 1 3 -1.050000 28.284512 9.165675 8.660277 # 3 
476 1 3 -1.050000 2.882725 16.734951 8.673784 # 3 
477 1 3 -1.050000 13.214925 29.753977 8.658963 # 3 
478 1 3 -1.050000 26.705690 27.030146 8.668601 # 3 
479 1 3 -1.050000 5.858829 11.584693 8.661913 # 3 
480 1 3 -1.050000 25.305332 24.608503 8.669871 # 3 
481 1 3 -1.050000 16.372631 29.756227 8.657316 # 3 
482 1 3 -1.050000 28.107845 14.314581 8.668325 # 3 
483 1 3 -1.050000 11.814862 21.884439 8.675112 # 3 
484 1 3 -1.050000 14.793496 11.685841 8.712396 # 3 
485 1 3 -1.050000 7.258766 19.461473 8.673876 # 3 
486 1 3 -1.050000 4.457787 9.163337 8.658113 # 3 
487 1 3 -1.050000 31.084639 29.752953 8.659101 # 3 
488 1 3 -1.050000 19.349768 24.610184 8.666005 # 3 
489 1 3 -1.050000 16.192406 24.609964 8.667375 # 3 
490 1 3 -1.050000 19.351461 4.015484 8.651307 # 3 
491 1 3 -1.050000 20.750645 16.736723 8.667985 # 3 
492 1 3 -1.050000 19.172623 19.463404 8.670660 # 3 
493 1 3 -1.050000 26.706934 21.982828 8.723886 # 3 
494 1 3 -1.050000 25.306913 14.314362 8.666651 # 3 
495 1 3 -1.050000 14.793960 1.388894 8.707264 # 3 
496 1 3 -1.050000 2.881049 11.687907 8.714105 # 3 
497 1 3 -1.050000 10.237884 4.014956 8.654672 # 3 
498 1 3 -1.050000 7.438344 14.313747 8.669418 # 3 
499 1 3 -1.050000 14.792898 27.031939 8.666350 # 3 
500 1 3 -1.050000 31.264799 4.014113 8.654872 # 3 
501 1 3 -1.050000 20.749592 27.032059 8.665056 # 3 
502 1 3 -1.050000 23.729370 1.290016 8.657092 # 3 
503 1 3 -1.050000 23.728285 11.588014 8.660138 # 3 
504 1 3 -1.050000 17.772690 1.290201 8.656468 # 3 
505 1 3 -1.050000 28.285692 29.753181 8.659577 # 3 
506 1 3 -1.050000 26.706953 11.689296 8.713755 # 3 
507 1 3 -1.050000 8.835465 21.982805 8.722597 # 3 
508 1 3 -1.050000 25.128897 19.462519 8.671094 # 3 
509 1 3 -1.050000 2.881085 6.436107 8.655353 # 3 
510 1 3 -1.050000 4.459517 29.753984 8.658893 # 3 
511 1 3 -1.050000 11.815154 11.585036 8.660723 # 3 
512 1 3 -1.050000 10.233877 24.608572 8.667242 # 3 
513 1 3 -1.050000 17.773039 6.537313 8.704985 # 3 
514 1 3 -1.050000 29.684912 21.882128 8.675265 # 3 
515 1 3 -1.050000 10.415593 29.754309 8.658646 # 3 
516 1 3 -1.050000 8.837446 6.436911 8.654774 # 3 
517 1 3 -1.050000 7.438028 4.014070 8.654712 # 3 
518 1 3 -1.050000 5.860634 16.836435 8.724195 # 3 
519 1 3 -1.050000 11.816246 1.288174 8.658262 # 3 
520 1 3 -1.050000 20.750015 11.688988 8.710615 # 3 
521 1 3 -1.050000 10.239949 14.312877 8.669801 # 3 
522 1 3 -1.050000 7.258511 29.754215 8.659268 # 3 
523 1 3 -1.050000 22.329210 29.755627 8.657768 # 3 
524 1 3 -1.050000 29.684219 27.127602 8.716780 # 3 
525 1 3 -1.050000 26.707918 6.438155 8.656089 # 3 
526 1 3 -1.050000 14.793282 21.984644 8.723197 # 3 
527 1 3 -1.050000 31.263018 24.606979 8.669989 # 3 
528 1 3 -1.050000 26.707745 16.735779 8.671300 # 3 
529 1 3 -1.050000 8.834273 27.030071 8.665331 # 3 
530 1 3 -1.050000 11.817324 16.836100 8.724239 # 3 
531 1 3 -1.050000 5.859472 6.536874 8.705224 # 3 
532 1 3 -1.050000 7.259132 9.163525 8.657565 # 3 
533 1 3 -1.050000 23.727987 27.130602 8.715555 # 3 
534 1 3 -1.050000 20.749996 21.984848 8.720091 # 3 
535 1 3 -1.050000 19.172682 9.164484 8.656565 # 3 
536 1 3 -1.050000 26.708385 1.388130 8.706627 # 3 
537 1 3 -1.050000 10.416253 19.461798 8.675023 # 3 
538 1 3 -1.050000 29.686750 16.835255 8.723464 # 3 
539 1 3 -1.050000 17.772625 16.837357 8.720381 # 3 
540 1 3 -1.050000 2.879479 21.981548 8.724481 # 3 
541 1 3 -1.050000 19.171354 29.756134 8.656620 # 3 
542 1 3 -1.050000 19.350447 14.315111 8.664557 # 3 
543 1 3 -1.050000 22.151011 4.015862 8.651885 # 3 
544 1 3 -1.050000 10.413994 9.163986 8.656703 # 3 
545 1 3 -1.050000 13.395012 4.014520 8.654751 # 3 
546 1 3 -1.050000 22.148714 24.610449 8.666466 # 3 
547 1 3 -1.050000 22.327600 9.166286 8.656455 # 3 
548 1 3 -1.050000 25.127859 29.755388 8.658558 # 3 
549 1 3 -1.050000 14.794272 6.436826 8.655820 # 3 
550 1 3 -1.050000 4.281410 4.013903 8.653960 # 3 
551 1 3 -1.050000 23.729103 6.538751 8.704634 # 3 
552 1 3 -1.050000 31.085291 9.164731 8.659377 # 3 
553 1 3 -1.050000 17.771654 11.585596 8.660416 # 3 
554 1 3 -1.050000 5.857025 27.128906 8.715104 # 3 
555 1 3 -1.050000 2.881137 1.387556 8.706918 # 3 
556 1 3 -1.050000 28.108540 4.015297 8.654181 # 3 
557 1 3 -1.050000 20.751116 1.389285 8.704699 # 3 
558 1 3 -1.050000 13.214877 9.163353 8.656540 # 3 
559 1 3 -1.050000 5.859963 1.288297 8.658141 # 3 
560 1 3 -1.050000 25.308649 4.015145 8.654302 # 3 
561 1 3 -1.050000 17.771093 27.131330 8.713784 # 3 
562 1 3 -1.050000 29.685997 6.538469 8.706248 # 3 
563 1 3 -1.050000 16.194592 4.014354 8.654399 # 3 
564 1 3 -1.050000 7.435081 24.607925 8.666494 # 3 
565 1 3 -1.050000 11.815721 6.537817 8.705531 # 3 
566 1 3 -1.050000 16.372042 9.162968 8.657046 # 3 
567 1 3 -1.050000 2.879460 27.029003 8.667381 # 3 
568 1 3 -1.050000 23.729073 16.837097 8.719023 # 3 
569 1 3 -1.050000 11.812590 27.129051 8.714524 # 3 
570 1 3 -1.050000 8.836829 11.687432 8.712927 # 3 
571 1 1 1.313000 4.362210 21.129524 9.869088 # 1 
572 1 1 1.313000 31.169683 15.981487 9.866462 # 1 
573 1 1 1.313000 4.363353 10.832563 9.855485 # 1 
574 1 1 1.313000 25.223269 21.130440 9.867158 # 1 
575 1 1 1.313000 7.339420 26.277163 9.860314 # 1 
576 1 1 1.313000 16.277122 21.132504 9.866601 # 1 
577 1 1 1.313000 22.245758 15.983377 9.862029 # 1 
578 1 1 1.313000 10.321133 0.535523 9.853165 # 1 
579 1 1 1.313000 11.816756 18.546227 9.869311 # 1 
580 1 1 1.313000 16.290440 15.981659 9.864629 # 1 
581 1 1 1.313000 5.858702 28.839577 9.856657 # 1 
582 1 1 1.313000 2.878911 23.691923 9.866599 # 1 