LAMMPS data file via write_data, version 17 Feb 2022, timestep = 0

1650 atoms
4 atom types

2.192877 31.975895 xlo xhi
-0.77555 30.112649 ylo yhi
-66.109021 133.890979 zlo zhi

Masses

1 55.845
2 55.845
3 15.994
4 11

Pair Coeffs # lj/cut/coul/long

1 9.0298e-07 4.9062
2 9.0298e-07 4.9062
3 0.1554 3.16554
4 0 0

Atoms # full

1 1 2 1.575 14.791908 21.987211 46.586768 0 0 0
2 1 1 1.05 29.682013 6.543717 46.572821 0 0 0
3 1 2 1.575 29.684702 27.128605 46.578772 0 0 0
4 1 2 1.575 26.70779 21.989342 46.586113 0 0 0
5 1 2 1.575 26.71101 11.696961 46.578696 0 0 0
6 1 2 1.575 8.83794 1.39116 46.572704 0 0 0
7 1 1 1.05 2.882251 11.696099 46.582643 0 0 0
8 1 1 1.05 20.748892 21.990004 46.58316 0 0 0
9 1 1 1.05 17.7729 16.84551 46.584216 0 0 0
10 1 2 1.575 14.792687 1.392089 46.572023 0 0 0
11 1 2 1.575 11.817587 16.844986 46.587806 0 0 0
12 1 2 1.575 23.729839 6.544719 46.571233 0 0 0
13 1 2 1.575 11.814522 6.541991 46.572305 0 0 0
14 1 2 1.575 8.83701 21.985498 46.585072 0 0 0
15 1 2 1.575 20.752178 11.697653 46.57537 0 0 0
16 1 1 1.05 2.878078 21.985983 46.586634 0 0 0
17 1 2 1.575 17.772629 6.545799 46.570135 0 0 0
18 1 2 1.575 23.727919 27.132441 46.578159 0 0 0
19 1 2 1.575 20.750937 1.39323 46.570175 0 0 0
20 1 2 1.575 26.707964 1.391047 46.573673 0 0 0
21 1 2 1.575 8.838657 11.696777 46.578945 0 0 0
22 1 2 1.575 17.770657 27.13261 46.575377 0 0 0
23 1 2 1.575 14.79598 11.695835 46.578037 0 0 0
24 1 2 1.575 5.861592 16.843277 46.588824 0 0 0
25 1 1 1.05 11.815379 27.128531 46.578173 0 0 0
26 1 2 1.575 29.687214 16.843811 46.585678 0 0 0
27 1 1 1.05 2.879725 1.388255 46.573097 0 0 0
28 1 1 1.05 5.859601 27.129711 46.57745 0 0 0
29 1 2 1.575 5.855034 6.54159 46.57369 0 0 0
30 1 2 1.575 23.730938 16.846388 46.583967 0 0 0
31 1 3 -1.05 22.260216 22.855499 47.331606 0 0 0
32 1 3 -1.05 28.174274 27.997784 47.324886 0 0 0
33 1 3 -1.05 28.219469 12.564448 47.330208 0 0 0
34 1 3 -1.05 31.191961 7.411053 47.322328 0 0 0
35 1 3 -1.05 25.199226 12.563728 47.325627 0 0 0
36 1 3 -1.05 4.392614 12.563205 47.331102 0 0 0
37 1 3 -1.05 29.688692 15.103052 47.335889 0 0 0
38 1 3 -1.05 23.727901 25.394016 47.333259 0 0 0
39 1 3 -1.05 31.156004 12.562708 47.333563 0 0 0
40 1 3 -1.05 25.238274 7.412661 47.322762 0 0 0
41 1 3 -1.05 26.707306 9.954136 47.324967 0 0 0
42 1 3 -1.05 10.347157 22.851509 47.335162 0 0 0
43 1 3 -1.05 17.772026 4.803187 47.316564 0 0 0
44 1 3 -1.05 22.262543 12.565192 47.323748 0 0 0
45 1 3 -1.05 22.220121 17.712099 47.33273 0 0 0
46 1 3 -1.05 29.683706 25.391817 47.337892 0 0 0
47 1 3 -1.05 10.347772 2.259871 47.320306 0 0 0
48 1 3 -1.05 31.197483 17.708433 47.336622 0 0 0
49 1 3 -1.05 29.684408 4.801254 47.320452 0 0 0
50 1 3 -1.05 2.88339 15.123354 47.380564 0 0 0
51 1 3 -1.05 16.263136 17.709789 47.336692 0 0 0
52 1 3 -1.05 16.261887 7.411938 47.319846999999996 0 0 0
53 1 3 -1.05 26.707804 -0.349362 47.324579 0 0 0
54 1 3 -1.05 5.857444 9.975165 47.369089 0 0 0
55 1 3 -1.05 14.793569 20.247782 47.340633 0 0 0
56 1 3 -1.05 10.348938 12.56337 47.327855 0 0 0
57 1 3 -1.05 10.307702 17.709238 47.339973 0 0 0
58 1 3 -1.05 25.196114 22.855181 47.333065 0 0 0
59 1 3 -1.05 25.239594 27.998648 47.324932 0 0 0
60 1 3 -1.05 28.218182 22.853575 47.337277 0 0 0
61 1 3 -1.05 13.327942 17.70953 47.3387 0 0 0
62 1 3 -1.05 31.152836 2.258646 47.319218 0 0 0
63 1 3 -1.05 13.28327 2.260321 47.321008 0 0 0
64 1 3 -1.05 4.39014 22.8517 47.332866 0 0 0
65 1 3 -1.05 17.769722 25.394436 47.331554 0 0 0
66 1 3 -1.05 7.370143 27.998701 47.323285999999996 0 0 0
67 1 3 -1.05 23.731201 15.104215 47.331172 0 0 0
68 1 3 -1.05 11.815259 4.800761 47.321551 0 0 0
69 1 3 -1.05 5.859272 -0.328522 47.366669 0 0 0
70 1 3 -1.05 4.390041 2.257849 47.318908 0 0 0
71 1 3 -1.05 4.348742 27.996811 47.32518 0 0 0
72 1 3 -1.05 28.174004 7.413662 47.322041 0 0 0
73 1 3 -1.05 8.837868 20.247375 47.341449 0 0 0
74 1 3 -1.05 20.750534 20.25075 47.337021 0 0 0
75 1 3 -1.05 4.350127 17.708336 47.336636 0 0 0
76 1 3 -1.05 23.729191 9.976562 47.366752 0 0 0
77 1 3 -1.05 16.305332 12.56321 47.327518 0 0 0
78 1 3 -1.05 22.219784 7.413816 47.31861 0 0 0
79 1 3 -1.05 19.283892 17.711819 47.332351 0 0 0
80 1 3 -1.05 2.880619 -0.352017 47.324889999999996 0 0 0
81 1 3 -1.05 2.880424 20.246529 47.339697 0 0 0
82 1 3 -1.05 26.709887 15.12533 47.376809 0 0 0
83 1 3 -1.05 2.879208 9.95217 47.325794 0 0 0
84 1 3 -1.05 14.793094 4.824423 47.364084 0 0 0
85 1 3 -1.05 22.261713 2.260962 47.317752 0 0 0
86 1 3 -1.05 28.17668 17.710257 47.334529 0 0 0
87 1 3 -1.05 7.3257 22.851946 47.332548 0 0 0
88 1 3 -1.05 16.303288 2.261581 47.317362 0 0 0
89 1 3 -1.05 7.372277 17.70907 47.337439 0 0 0
90 1 3 -1.05 20.750477 9.955349 47.322599 0 0 0
91 1 3 -1.05 31.151995 22.85326 47.336737 0 0 0
92 1 3 -1.05 14.791176 25.412825 47.375333 0 0 0
93 1 3 -1.05 19.239508 2.261483 47.315491 0 0 0
94 1 3 -1.05 29.684469 9.97681 47.371068 0 0 0
95 1 3 -1.05 19.237814 22.855698 47.331093 0 0 0
96 1 3 -1.05 13.286053 12.561837 47.328705 0 0 0
97 1 3 -1.05 10.305359 27.998089 47.324735 0 0 0
98 1 3 -1.05 7.366031 7.410001 47.320041 0 0 0
99 1 3 -1.05 13.324035 7.411023 47.320713 0 0 0
100 1 3 -1.05 14.793507 9.951947 47.321647 0 0 0
101 1 3 -1.05 19.24192 12.563911 47.325477 0 0 0
102 1 3 -1.05 14.79317 -0.348472 47.323177 0 0 0
103 1 3 -1.05 11.817879 15.102474 47.334223 0 0 0
104 1 3 -1.05 13.282424 22.853395 47.336624 0 0 0
105 1 3 -1.05 17.771351 20.269993 47.379855 0 0 0
106 1 3 -1.05 20.751333 4.82469 47.360926 0 0 0
107 1 3 -1.05 11.815681 -0.326912 47.367689 0 0 0
108 1 3 -1.05 23.730051 -0.326563 47.366757 0 0 0
109 1 3 -1.05 7.326674 2.259237 47.318639 0 0 0
110 1 3 -1.05 25.241198 17.711056 47.334481 0 0 0
111 1 3 -1.05 23.72999 20.270571 47.37926 0 0 0
112 1 3 -1.05 31.195919 27.996563 47.325041999999996 0 0 0
113 1 3 -1.05 4.345842 7.41101 47.321128 0 0 0
114 1 3 -1.05 16.302773 22.854784 47.332746 0 0 0
115 1 3 -1.05 23.729897 4.802273 47.318623 0 0 0
116 1 3 -1.05 5.85778 4.799209 47.320420999999996 0 0 0
117 1 3 -1.05 29.686527 20.269085 47.382704 0 0 0
118 1 3 -1.05 26.708651 20.249495 47.33902 0 0 0
119 1 3 -1.05 20.750784 -0.346793 47.321987 0 0 0
120 1 3 -1.05 8.835855 9.952195 47.320996 0 0 0
121 1 3 -1.05 8.837735 -0.349401 47.323612 0 0 0
122 1 3 -1.05 7.329448 12.562342 47.331468 0 0 0
123 1 3 -1.05 26.706648 25.412086 47.37711 0 0 0
124 1 3 -1.05 19.281254 28.000996 47.322321 0 0 0
125 1 3 -1.05 11.813763 25.390751 47.334413 0 0 0
126 1 3 -1.05 22.217131 28.000744 47.323728 0 0 0
127 1 3 -1.05 20.748682 25.415194 47.373135 0 0 0
128 1 3 -1.05 19.283686 7.413501 47.317312 0 0 0
129 1 3 -1.05 8.837031 4.821898 47.363929999999996 0 0 0
130 1 3 -1.05 8.836092 25.411459 47.374616 0 0 0
131 1 3 -1.05 25.198137 2.260749 47.320079 0 0 0
132 1 3 -1.05 16.259451 27.999887 47.322102 0 0 0
133 1 3 -1.05 17.771336 -0.325767 47.364539 0 0 0
134 1 3 -1.05 11.816534 20.267759 47.384124 0 0 0
135 1 3 -1.05 20.751919 15.126054 47.373767 0 0 0
136 1 3 -1.05 14.795551 15.124491 47.378394 0 0 0
137 1 3 -1.05 5.859741 20.266487 47.381766 0 0 0
138 1 3 -1.05 29.685751 -0.329088 47.367833 0 0 0
139 1 3 -1.05 2.879505 4.822052 47.363662 0 0 0
140 1 3 -1.05 28.217896 2.259694 47.321339 0 0 0
141 1 3 -1.05 5.862007 15.102598 47.338913 0 0 0
142 1 3 -1.05 17.773161 15.103227 47.331300999999996 0 0 0
143 1 3 -1.05 17.772356 9.976126 47.367109 0 0 0
144 1 3 -1.05 8.839434 15.123921 47.380086 0 0 0
145 1 3 -1.05 13.324859 27.998678 47.324583 0 0 0
146 1 3 -1.05 11.814907 9.975534 47.366809 0 0 0
147 1 3 -1.05 26.707691 4.825164 47.36454 0 0 0
148 1 3 -1.05 10.30348 7.411097 47.317328 0 0 0
149 1 3 -1.05 5.857244 25.390919 47.332042 0 0 0
150 1 3 -1.05 2.878438 25.410919 47.376491 0 0 0
151 1 2 1.575 28.211859 14.260791 48.272135 0 0 0
152 1 1 1.05 14.795783 16.855112 48.276157 0 0 0
153 1 2 1.575 31.163706 14.259815 48.274146 0 0 0
154 1 2 1.575 7.361678 29.69677 48.261704 0 0 0
155 1 2 1.575 31.186001 9.10918 48.262788 0 0 0
156 1 1 1.05 22.250959 24.553038 48.270733 0 0 0
157 1 2 1.575 16.270134 19.406593 48.277277 0 0 0
158 1 2 1.575 23.727915 22.002808 48.272811 0 0 0
159 1 2 1.575 29.686218 11.708293 48.268889 0 0 0
160 1 2 1.575 23.72979 11.709269 48.262102 0 0 0
161 1 2 1.575 22.226982 19.408154 48.274001999999996 0 0 0
162 1 1 1.05 2.882365 16.85483 48.275892 0 0 0
163 1 2 1.575 25.231499 29.697552 48.262722 0 0 0
164 1 2 1.575 10.313859 19.405785 48.279973 0 0 0
165 1 2 1.575 4.381332 3.95611 48.257552 0 0 0
166 1 2 1.575 28.183329 29.695913 48.262807 0 0 0
167 1 1 1.05 10.339515 3.957682 48.259042 0 0 0
168 1 1 1.05 7.36204 19.405405 48.278841 0 0 0
169 1 2 1.575 26.706453 27.146374 48.267148 0 0 0
170 1 2 1.575 19.246012 24.553654 48.269999 0 0 0
171 1 1 1.05 25.230801 9.11101 48.261606 0 0 0
172 1 1 1.05 11.815464 1.406483 48.260518 0 0 0
173 1 2 1.575 5.860431 11.706298 48.267068 0 0 0
174 1 2 1.575 2.880393 27.14496 48.266427 0 0 0
175 1 2 1.575 22.226225 29.699162 48.261376999999996 0 0 0
176 1 2 1.575 17.771133 22.002966 48.272813 0 0 0
177 1 2 1.575 16.294245 24.552334 48.271168 0 0 0
178 1 1 1.05 4.357516 29.695288 48.262654 0 0 0
179 1 2 1.575 19.248163 3.960281 48.25395 0 0 0
180 1 2 1.575 25.203022 24.552328 48.272564 0 0 0
181 1 2 1.575 25.206751 14.260232 48.267997 0 0 0
182 1 2 1.575 16.296799 3.960289 48.255736999999996 0 0 0
183 1 2 1.575 13.318839 19.405849 48.280281 0 0 0
184 1 2 1.575 4.356917 19.404701 48.277384 0 0 0
185 1 2 1.575 31.187956 19.404682 48.277772 0 0 0
186 1 2 1.575 22.226608 9.111291 48.259323 0 0 0
187 1 2 1.575 26.708799 16.856508 48.273453 0 0 0
188 1 2 1.575 10.312048 9.108703 48.258155 0 0 0
189 1 2 1.575 16.269768 9.109961 48.259674 0 0 0
190 1 1 1.05 28.182053 9.11071 48.263709 0 0 0
191 1 2 1.575 2.877925 6.555277 48.258659 0 0 0
192 1 2 1.575 8.836012 6.555669 48.256689 0 0 0
193 1 2 1.575 19.274012 29.699804 48.259710999999996 0 0 0
194 1 1 1.05 19.274895 19.408154 48.274213 0 0 0
195 1 1 1.05 5.859142 1.405493 48.258535 0 0 0
196 1 2 1.575 7.334456 3.957387 48.257828 0 0 0
197 1 1 1.05 31.187498 29.694719 48.263233 0 0 0
198 1 2 1.575 20.748617 27.149185 48.264157 0 0 0
199 1 1 1.05 28.207899 24.55064 48.27637 0 0 0
200 1 1 1.05 11.81665 11.70676 48.264689 0 0 0
201 1 2 1.575 13.317837 29.697264 48.262004 0 0 0
202 1 2 1.575 20.75182 16.85747 48.2706 0 0 0
203 1 2 1.575 17.771816 1.408361 48.256622 0 0 0
204 1 2 1.575 10.313485 29.696953 48.262495 0 0 0
205 1 2 1.575 4.385799 14.258512 48.27513 0 0 0
206 1 2 1.575 13.291753 3.958905 48.259329 0 0 0
207 1 2 1.575 13.293508 14.258696 48.270897 0 0 0
208 1 1 1.05 10.342539 14.259027 48.271905 0 0 0
209 1 1 1.05 19.250055 14.260537 48.267271 0 0 0
210 1 1 1.05 16.298693 14.259271 48.270186 0 0 0
211 1 2 1.575 11.815004 22.000717 48.276899 0 0 0
212 1 2 1.575 28.183867 19.406437 48.27668 0 0 0
213 1 2 1.575 31.160393 3.957254 48.257276 0 0 0
214 1 2 1.575 14.793167 27.147285 48.265367 0 0 0
215 1 2 1.575 7.333368 24.549999 48.271072 0 0 0
216 1 2 1.575 10.337697 24.549759 48.272732 0 0 0
217 1 2 1.575 31.159872 24.550707 48.27574 0 0 0
218 1 2 1.575 20.751554 6.55796 48.255273 0 0 0
219 1 2 1.575 29.685747 1.40486 48.260317 0 0 0
220 1 2 1.575 17.774158 11.707918 48.263782 0 0 0
221 1 2 1.575 23.729076 1.407261 48.258375 0 0 0
222 1 2 1.575 14.793521 6.55718 48.25835 0 0 0
223 1 2 1.575 7.360585 9.108403 48.25924 0 0 0
224 1 2 1.575 22.254824 14.261116 48.266992 0 0 0
225 1 1 1.05 5.858087 21.999601 48.273675 0 0 0
226 1 2 1.575 13.289804 24.551394 48.274209 0 0 0
227 1 2 1.575 25.232222 19.407562 48.275553 0 0 0
228 1 2 1.575 19.275208 9.110334 48.259156 0 0 0
229 1 2 1.575 26.706753 6.557903 48.26044 0 0 0
230 1 2 1.575 8.839226 16.855015 48.277606 0 0 0
231 1 2 1.575 8.836835 27.145742 48.26507 0 0 0
232 1 1 1.05 25.204981 3.959951 48.257774 0 0 0
233 1 2 1.575 4.355306 9.10832 48.262189 0 0 0
234 1 1 1.05 7.337746 14.258478 48.274418 0 0 0
235 1 2 1.575 13.317517 9.10951 48.259529 0 0 0
236 1 1 1.05 22.253428 3.959657 48.256022 0 0 0
237 1 2 1.575 29.685272 22.000818 48.278226000000004 0 0 0
238 1 2 1.575 28.209152 3.958699 48.258834 0 0 0
239 1 2 1.575 16.269663 29.698271 48.260287 0 0 0
240 1 2 1.575 4.381762 24.549538 48.271383 0 0 0
241 1 3 -1.05 29.686754 13.408454 49.476842 0 0 0
242 1 3 -1.05 28.09297 15.920487 49.578242 0 0 0
243 1 3 -1.05 26.707327 13.5272 49.573482999999996 0 0 0
244 1 3 -1.05 26.706762 28.846849 49.469119 0 0 0
245 1 3 -1.05 28.088711 26.213541 49.576347 0 0 0
246 1 3 -1.05 22.345247 21.069345 49.578615 0 0 0
247 1 3 -1.05 2.881738 18.553526 49.481931 0 0 0
248 1 3 -1.05 23.730263 13.40807 49.470904 0 0 0
249 1 3 -1.05 17.77335 18.674967 49.578647000000004 0 0 0
250 1 3 -1.05 19.155733 21.0693 49.578398 0 0 0
251 1 3 -1.05 14.795813 18.554787 49.483283 0 0 0
252 1 3 -1.05 4.475285 0.470386 49.565473 0 0 0
253 1 3 -1.05 26.705622 23.819162 49.578372 0 0 0
254 1 3 -1.05 29.683931 8.377178 49.566927 0 0 0
255 1 3 -1.05 28.300407 10.772614 49.570682 0 0 0
256 1 3 -1.05 23.72929 18.674906 49.577763 0 0 0
257 1 3 -1.05 20.75135 18.556753 49.478181 0 0 0
258 1 3 -1.05 14.795592 13.52521 49.574232 0 0 0
259 1 3 -1.05 11.813979 23.7013 49.479668 0 0 0
260 1 3 -1.05 23.727808 8.378706 49.564109 0 0 0
261 1 3 -1.05 16.388281 21.069029 49.580188 0 0 0
262 1 3 -1.05 31.06934 10.771103 49.570743 0 0 0
263 1 3 -1.05 17.772753 3.109684 49.460096 0 0 0
264 1 3 -1.05 13.19981 0.471789 49.56606 0 0 0
265 1 3 -1.05 11.815643 3.107418 49.46468 0 0 0
266 1 3 -1.05 5.859503 28.964649 49.566626 0 0 0
267 1 3 -1.05 19.365189 26.215597 49.57204 0 0 0
268 1 3 -1.05 14.794065 28.847765 49.467364 0 0 0
269 1 3 -1.05 8.837163 28.847088 49.467783 0 0 0
270 1 3 -1.05 17.770971 23.703348 49.476381 0 0 0
271 1 3 -1.05 29.684786 28.963982 49.567434 0 0 0
272 1 3 -1.05 5.857382 23.700415 49.476698999999996 0 0 0
273 1 3 -1.05 13.411469 15.919173 49.579247 0 0 0
274 1 3 -1.05 16.18022 15.919751 49.578159 0 0 0
275 1 3 -1.05 11.817523 18.673344 49.583386 0 0 0
276 1 3 -1.05 19.366711 5.62248 49.559561 0 0 0
277 1 3 -1.05 8.838367 18.554993 49.484094999999996 0 0 0
278 1 3 -1.05 26.706459 8.259075 49.466885 0 0 0
279 1 3 -1.05 5.861328 13.405766 49.477244 0 0 0
280 1 3 -1.05 13.199578 21.06732 49.583212 0 0 0
281 1 3 -1.05 28.301889 21.066193 49.582867 0 0 0
282 1 3 -1.05 7.241632 21.066908 49.581133 0 0 0
283 1 3 -1.05 20.751846 13.527716 49.570121 0 0 0
284 1 3 -1.05 4.47471 21.065573 49.581097 0 0 0
285 1 3 -1.05 22.344179 10.773763 49.565625 0 0 0
286 1 3 -1.05 20.749189 23.821445 49.573751 0 0 0
287 1 3 -1.05 17.774109 13.407494 49.472065 0 0 0
288 1 3 -1.05 20.751028 3.227509 49.558763 0 0 0
289 1 3 -1.05 23.726982 23.702642 49.477042 0 0 0
290 1 3 -1.05 10.431734 21.066708 49.582973 0 0 0
291 1 3 -1.05 5.858402 8.374866 49.56464 0 0 0
292 1 3 -1.05 2.880613 28.845247 49.469261 0 0 0
293 1 3 -1.05 7.451714 26.212667 49.572156 0 0 0
294 1 3 -1.05 2.883688 13.525704 49.577497 0 0 0
295 1 3 -1.05 23.727928 28.966389 49.566519 0 0 0
296 1 3 -1.05 7.456133 15.920403 49.580926 0 0 0
297 1 3 -1.05 22.13604 15.921477 49.574392 0 0 0
298 1 3 -1.05 2.878716 8.256022 49.465834 0 0 0
299 1 3 -1.05 11.81748 13.405986 49.474052 0 0 0
300 1 3 -1.05 29.686626 18.672676 49.580478 0 0 0
301 1 3 -1.05 8.835595 23.818708 49.575469 0 0 0
302 1 3 -1.05 8.8366 8.256496 49.462613 0 0 0
303 1 3 -1.05 26.708492 18.555086 49.480184 0 0 0
304 1 3 -1.05 2.880514 3.224584 49.561552 0 0 0
305 1 3 -1.05 31.279102 5.620037 49.562979 0 0 0
306 1 3 -1.05 29.684248 23.700573 49.482126 0 0 0
307 1 3 -1.05 14.79404 8.257793 49.46404 0 0 0
308 1 3 -1.05 19.155468 0.47467 49.562758 0 0 0
309 1 3 -1.05 26.707905 3.227225 49.562424 0 0 0
310 1 3 -1.05 4.267396 15.919366 49.580872 0 0 0
311 1 3 -1.05 10.431779 0.471876 49.566081 0 0 0
312 1 3 -1.05 20.749191 28.850075 49.466858 0 0 0
313 1 3 -1.05 23.729239 3.109188 49.46217 0 0 0
314 1 3 -1.05 29.686131 3.107218 49.463786999999996 0 0 0
315 1 3 -1.05 31.069464 21.066067 49.582546 0 0 0
316 1 3 -1.05 19.367407 15.921756 49.574358000000004 0 0 0
317 1 3 -1.05 8.83943 13.525928 49.575965 0 0 0
318 1 3 -1.05 25.112984 21.068127 49.579949 0 0 0
319 1 3 -1.05 4.263273 26.212051 49.574239 0 0 0
320 1 3 -1.05 4.474015 10.769602 49.568947 0 0 0
321 1 3 -1.05 5.859734 18.67239 49.581207 0 0 0
322 1 3 -1.05 22.345264 0.473794 49.564064 0 0 0
323 1 3 -1.05 5.858919 3.105519 49.462849 0 0 0
324 1 3 -1.05 25.112782 10.773116 49.567432 0 0 0
325 1 3 -1.05 25.324404 15.921371 49.576402 0 0 0
326 1 3 -1.05 7.243696 10.769029 49.568148 0 0 0
327 1 3 -1.05 31.281815 15.919816 49.58064 0 0 0
328 1 3 -1.05 16.388062 0.474158 49.564036 0 0 0
329 1 3 -1.05 8.837442 3.22544 49.562516 0 0 0
330 1 3 -1.05 13.408603 26.213974 49.57425 0 0 0
331 1 3 -1.05 16.17882 5.621838 49.56254 0 0 0
332 1 3 -1.05 2.880676 23.817938 49.577746 0 0 0
333 1 3 -1.05 7.243494 0.471425 49.565394 0 0 0
334 1 3 -1.05 13.199773 10.769935 49.566867 0 0 0
335 1 3 -1.05 14.79298 23.82057 49.577094 0 0 0
336 1 3 -1.05 4.264507 5.619734 49.562438 0 0 0
337 1 3 -1.05 16.176052 26.215443 49.572964 0 0 0
338 1 3 -1.05 25.113096 0.472563 49.565443 0 0 0
339 1 3 -1.05 22.132202 26.215609 49.572497999999996 0 0 0
340 1 3 -1.05 11.815338 28.965366 49.566943 0 0 0
341 1 3 -1.05 10.22432 15.919287 49.580753 0 0 0
342 1 3 -1.05 22.13492 5.623008 49.560266999999996 0 0 0
343 1 3 -1.05 10.430234 10.770577 49.56642 0 0 0
344 1 3 -1.05 20.750698 8.258787 49.462777 0 0 0
345 1 3 -1.05 31.069445 0.470336 49.565887000000004 0 0 0
346 1 3 -1.05 25.321724 26.213612 49.575136 0 0 0
347 1 3 -1.05 31.278988 26.21174 49.575751 0 0 0
348 1 3 -1.05 14.794575 3.226748 49.562002 0 0 0
349 1 3 -1.05 10.218821 26.213257 49.573512 0 0 0
350 1 3 -1.05 17.771358 28.967556 49.56432 0 0 0
351 1 3 -1.05 10.22138 5.621218 49.562442 0 0 0
352 1 3 -1.05 19.155996 10.7731 49.566545 0 0 0
353 1 3 -1.05 25.322952 5.62222 49.563443 0 0 0
354 1 3 -1.05 7.452536 5.619775 49.562306 0 0 0
355 1 3 -1.05 28.091591 5.622334 49.563322 0 0 0
356 1 3 -1.05 28.301397 0.47131 49.565786 0 0 0
357 1 3 -1.05 13.410134 5.621598 49.563352 0 0 0
358 1 3 -1.05 17.773869 8.376652 49.562951 0 0 0
359 1 3 -1.05 16.38714 10.770156 49.567066 0 0 0
360 1 3 -1.05 11.814185 8.37603 49.562822 0 0 0
361 1 2 1.575 14.793747 21.984156 50.108349 0 0 0
362 1 2 1.575 2.880854 11.68628 50.099408 0 0 0
363 1 2 1.575 8.837456 1.388116 50.09345 0 0 0
364 1 1 1.05 26.706322 11.688582 50.098866 0 0 0
365 1 2 1.575 8.836132 21.982376 50.107738 0 0 0
366 1 2 1.575 26.707327 21.982592 50.109144 0 0 0
367 1 2 1.575 17.773851 16.83692 50.105471 0 0 0
368 1 2 1.575 5.861297 16.834991 50.109353 0 0 0
369 1 2 1.575 14.793456 11.686089 50.097466 0 0 0
370 1 1 1.05 5.85846 6.536314 50.090299 0 0 0
371 1 2 1.575 29.684511 27.12801 50.101852 0 0 0
372 1 1 1.05 17.773085 6.538328 50.090175 0 0 0
373 1 1 1.05 14.793677 1.389498 50.092036 0 0 0
374 1 1 1.05 23.727129 27.130175 50.10052 0 0 0
375 1 2 1.575 5.857635 27.12863 50.100169 0 0 0
376 1 2 1.575 11.818135 16.835339 50.109429 0 0 0
377 1 2 1.575 29.68593 6.538137 50.091394 0 0 0
378 1 1 1.05 29.687119 16.835228 50.108585 0 0 0
379 1 2 1.575 20.750132 11.689188 50.095481 0 0 0
380 1 2 1.575 2.880743 21.981516 50.109412 0 0 0
381 1 1 1.05 20.750273 21.98484 50.105152 0 0 0
382 1 2 1.575 23.729862 16.836866 50.104064 0 0 0
383 1 2 1.575 23.728664 6.539752 50.089556 0 0 0
384 1 2 1.575 20.750603 1.390237 50.089628 0 0 0
385 1 1 1.05 26.707476 1.389273 50.091546 0 0 0
386 1 2 1.575 11.813386 27.129128 50.099621 0 0 0
387 1 2 1.575 2.88106 1.387045 50.092005 0 0 0
388 1 2 1.575 17.770779 27.131542 50.098712 0 0 0
389 1 2 1.575 11.81555 6.537831 50.090275 0 0 0
390 1 1 1.05 8.836909 11.686531 50.097944 0 0 0
391 1 2 1.575 17.772442 20.270746 50.774428 0 0 0
392 1 1 1.05 29.684416 9.973133 50.764187 0 0 0
393 1 2 1.575 14.795971 15.120519 50.77225 0 0 0
394 1 2 1.575 11.81587 20.26948 50.778597 0 0 0
395 1 2 1.575 29.685963 20.267851 50.777239 0 0 0
396 1 2 1.575 5.858507 20.268379 50.776771 0 0 0
397 1 2 1.575 20.751081 15.12298 50.768329 0 0 0
398 1 2 1.575 23.728859 20.270506 50.773943 0 0 0
399 1 1 1.05 11.81603 -0.32635 50.761197 0 0 0
400 1 1 1.05 2.883015 15.121043 50.774574 0 0 0
401 1 2 1.575 17.772181 -0.324374 50.759164999999996 0 0 0
402 1 2 1.575 2.880703 4.821136 50.756917 0 0 0
403 1 2 1.575 23.728745 -0.324913 50.760416 0 0 0
404 1 2 1.575 23.727734 9.974825 50.760732 0 0 0
405 1 1 1.05 26.707895 15.122147 50.77168 0 0 0
406 1 1 1.05 8.837597 4.822261 50.757205 0 0 0
407 1 1 1.05 29.685066 -0.327537 50.761612 0 0 0
408 1 2 1.575 5.85881 9.970704 50.762063 0 0 0
409 1 2 1.575 20.750959 4.823769 50.754683 0 0 0
410 1 2 1.575 20.748991 25.417618 50.768276 0 0 0
411 1 2 1.575 14.794826 4.82267 50.757611 0 0 0
412 1 2 1.575 26.70801 4.823518 50.757777 0 0 0
413 1 2 1.575 5.859543 -0.32681 50.761117999999996 0 0 0
414 1 2 1.575 8.834709 25.415491 50.769137 0 0 0
415 1 2 1.575 14.792793 25.417202 50.770477 0 0 0
416 1 2 1.575 26.704952 25.415697 50.772118 0 0 0
417 1 2 1.575 2.879614 25.414371 50.771448 0 0 0
418 1 2 1.575 11.814569 9.971482 50.760342 0 0 0
419 1 2 1.575 17.772001 9.971952 50.760502 0 0 0
420 1 1 1.05 8.839994 15.12105 50.774329 0 0 0
421 1 2 1.575 29.686281 13.408034 51.38196 0 0 0
422 1 2 1.575 2.881329 18.55427 51.387236 0 0 0
423 1 1 1.05 26.706335 28.847404 51.374764 0 0 0
424 1 2 1.575 14.79455 18.554798 51.388627 0 0 0
425 1 1 1.05 23.729416 13.408391 51.376496 0 0 0
426 1 2 1.575 5.856384 23.700754 51.382034 0 0 0
427 1 2 1.575 2.880787 28.846479 51.374896 0 0 0
428 1 1 1.05 14.794119 28.849049 51.372871 0 0 0
429 1 2 1.575 17.770897 23.703451 51.38172 0 0 0
430 1 2 1.575 17.772951 3.108607 51.365734 0 0 0
431 1 2 1.575 11.814051 23.702629 51.384637999999995 0 0 0
432 1 2 1.575 29.686522 3.106846 51.369192999999996 0 0 0
433 1 2 1.575 8.83689 28.84775 51.373378 0 0 0
434 1 2 1.575 11.817052 13.406355 51.379486 0 0 0
435 1 2 1.575 23.727041 23.702694 51.382374 0 0 0
436 1 2 1.575 11.816276 3.107301 51.370024 0 0 0
437 1 2 1.575 26.707119 8.258683 51.372035 0 0 0
438 1 2 1.575 26.707531 18.555498 51.385542 0 0 0
439 1 2 1.575 29.683432 23.70093 51.387263 0 0 0
440 1 2 1.575 8.837748 18.554808 51.389346 0 0 0
441 1 2 1.575 23.730036 3.108952 51.367808 0 0 0
442 1 2 1.575 17.772999 13.40661 51.377639 0 0 0
443 1 2 1.575 8.836547 8.256772 51.368289 0 0 0
444 1 2 1.575 5.85997 3.106851 51.368282 0 0 0
445 1 2 1.575 5.86047 13.406324 51.382373 0 0 0
446 1 2 1.575 20.750715 18.556726 51.383676 0 0 0
447 1 2 1.575 2.8794 8.25642 51.371083999999996 0 0 0
448 1 2 1.575 20.750221 28.849503 51.372343 0 0 0
449 1 2 1.575 14.793341 8.256874 51.369734 0 0 0
450 1 2 1.575 20.750603 8.257794 51.368573999999995 0 0 0
451 1 3 -1.05 4.278617 24.607199 51.974345 0 0 0
452 1 3 -1.05 31.085787 19.460093 51.979015000000004 0 0 0
453 1 3 -1.05 22.151236 14.314816 51.969467 0 0 0
454 1 3 -1.05 31.264872 14.313588 51.97477 0 0 0
455 1 3 -1.05 5.857144 21.883099 51.978672 0 0 0
456 1 3 -1.05 16.195704 14.312626 51.97289 0 0 0
457 1 3 -1.05 13.216543 19.462345 51.980249 0 0 0
458 1 3 -1.05 29.686104 1.287761 51.962699 0 0 0
459 1 3 -1.05 4.458804 19.461145 51.979041 0 0 0
460 1 3 -1.05 14.79479 16.734549 51.977269 0 0 0
461 1 3 -1.05 29.685574 11.587241 51.968777 0 0 0
462 1 3 -1.05 17.772079 21.885166 51.977051 0 0 0
463 1 3 -1.05 28.285944 19.460388 51.978684 0 0 0
464 1 3 -1.05 13.394858 14.312701 51.973227 0 0 0
465 1 3 -1.05 28.10445 24.608004 51.975602 0 0 0
466 1 3 -1.05 16.372694 19.463396 51.97706 0 0 0
467 1 3 -1.05 13.393039 24.609505 51.973338 0 0 0
468 1 3 -1.05 8.838179 1.388218 52.013484 0 0 0
469 1 3 -1.05 8.839169 16.734951 51.979152 0 0 0
470 1 3 -1.05 22.328716 19.463089 51.975257 0 0 0
471 1 3 -1.05 4.283254 14.313781 51.975619 0 0 0
472 1 3 -1.05 23.728651 21.884514 51.976848000000004 0 0 0
473 1 3 -1.05 25.128729 9.166573 51.962201 0 0 0
474 1 3 -1.05 20.750727 6.437728 51.958556 0 0 0
475 1 3 -1.05 28.284512 9.165675 51.965277 0 0 0
476 1 3 -1.05 2.882725 16.734951 51.978784 0 0 0
477 1 3 -1.05 13.214925 29.753977 51.963963 0 0 0
478 1 3 -1.05 26.70569 27.030146 51.973601 0 0 0
479 1 3 -1.05 5.858829 11.584693 51.966913 0 0 0
480 1 3 -1.05 25.305332 24.608503 51.974871 0 0 0
481 1 3 -1.05 16.372631 29.756227 51.962316 0 0 0
482 1 3 -1.05 28.107845 14.314581 51.973325 0 0 0
483 1 3 -1.05 11.814862 21.884439 51.980112 0 0 0
484 1 3 -1.05 14.793496 11.685841 52.017396 0 0 0
485 1 3 -1.05 7.258766 19.461473 51.978876 0 0 0
486 1 3 -1.05 4.457787 9.163337 51.963113 0 0 0
487 1 3 -1.05 31.084639 29.752953 51.964101 0 0 0
488 1 3 -1.05 19.349768 24.610184 51.971005 0 0 0
489 1 3 -1.05 16.192406 24.609964 51.972375 0 0 0
490 1 3 -1.05 19.351461 4.015484 51.956306999999995 0 0 0
491 1 3 -1.05 20.750645 16.736723 51.972985 0 0 0
492 1 3 -1.05 19.172623 19.463404 51.97566 0 0 0
493 1 3 -1.05 26.706934 21.982828 52.028886 0 0 0
494 1 3 -1.05 25.306913 14.314362 51.971651 0 0 0
495 1 3 -1.05 14.79396 1.388894 52.012264 0 0 0
496 1 3 -1.05 2.881049 11.687907 52.019104999999996 0 0 0
497 1 3 -1.05 10.237884 4.014956 51.959672 0 0 0
498 1 3 -1.05 7.438344 14.313747 51.974418 0 0 0
499 1 3 -1.05 14.792898 27.031939 51.97135 0 0 0
500 1 3 -1.05 31.264799 4.014113 51.959872 0 0 0
501 1 3 -1.05 20.749592 27.032059 51.970056 0 0 0
502 1 3 -1.05 23.72937 1.290016 51.962092 0 0 0
503 1 3 -1.05 23.728285 11.588014 51.965137999999996 0 0 0
504 1 3 -1.05 17.77269 1.290201 51.961467999999996 0 0 0
505 1 3 -1.05 28.285692 29.753181 51.964577 0 0 0
506 1 3 -1.05 26.706953 11.689296 52.018755 0 0 0
507 1 3 -1.05 8.835465 21.982805 52.027597 0 0 0
508 1 3 -1.05 25.128897 19.462519 51.976094 0 0 0
509 1 3 -1.05 2.881085 6.436107 51.960353 0 0 0
510 1 3 -1.05 4.459517 29.753984 51.963893 0 0 0
511 1 3 -1.05 11.815154 11.585036 51.965723 0 0 0
512 1 3 -1.05 10.233877 24.608572 51.972242 0 0 0
513 1 3 -1.05 17.773039 6.537313 52.009985 0 0 0
514 1 3 -1.05 29.684912 21.882128 51.980265 0 0 0
515 1 3 -1.05 10.415593 29.754309 51.963646 0 0 0
516 1 3 -1.05 8.837446 6.436911 51.959773999999996 0 0 0
517 1 3 -1.05 7.438028 4.01407 51.959711999999996 0 0 0
518 1 3 -1.05 5.860634 16.836435 52.029195 0 0 0
519 1 3 -1.05 11.816246 1.288174 51.963262 0 0 0
520 1 3 -1.05 20.750015 11.688988 52.015615 0 0 0
521 1 3 -1.05 10.239949 14.312877 51.974801 0 0 0
522 1 3 -1.05 7.258511 29.754215 51.964268000000004 0 0 0
523 1 3 -1.05 22.32921 29.755627 51.962768 0 0 0
524 1 3 -1.05 29.684219 27.127602 52.02178 0 0 0
525 1 3 -1.05 26.707918 6.438155 51.961089 0 0 0
526 1 3 -1.05 14.793282 21.984644 52.028197 0 0 0
527 1 3 -1.05 31.263018 24.606979 51.974989 0 0 0
528 1 3 -1.05 26.707745 16.735779 51.9763 0 0 0
529 1 3 -1.05 8.834273 27.030071 51.970331 0 0 0
530 1 3 -1.05 11.817324 16.8361 52.029239000000004 0 0 0
531 1 3 -1.05 5.859472 6.536874 52.010224 0 0 0
532 1 3 -1.05 7.259132 9.163525 51.962565 0 0 0
533 1 3 -1.05 23.727987 27.130602 52.020555 0 0 0
534 1 3 -1.05 20.749996 21.984848 52.025091 0 0 0
535 1 3 -1.05 19.172682 9.164484 51.961565 0 0 0
536 1 3 -1.05 26.708385 1.38813 52.011627 0 0 0
537 1 3 -1.05 10.416253 19.461798 51.980023 0 0 0
538 1 3 -1.05 29.68675 16.835255 52.028464 0 0 0
539 1 3 -1.05 17.772625 16.837357 52.025380999999996 0 0 0
540 1 3 -1.05 2.879479 21.981548 52.029481000000004 0 0 0
541 1 3 -1.05 19.171354 29.756134 51.961619999999996 0 0 0
542 1 3 -1.05 19.350447 14.315111 51.969557 0 0 0
543 1 3 -1.05 22.151011 4.015862 51.956885 0 0 0
544 1 3 -1.05 10.413994 9.163986 51.961703 0 0 0
545 1 3 -1.05 13.395012 4.01452 51.959751 0 0 0
546 1 3 -1.05 22.148714 24.610449 51.971466 0 0 0
547 1 3 -1.05 22.3276 9.166286 51.961455 0 0 0
548 1 3 -1.05 25.127859 29.755388 51.963558 0 0 0
549 1 3 -1.05 14.794272 6.436826 51.96082 0 0 0
550 1 3 -1.05 4.28141 4.013903 51.95896 0 0 0
551 1 3 -1.05 23.729103 6.538751 52.009634 0 0 0
552 1 3 -1.05 31.085291 9.164731 51.964377 0 0 0
553 1 3 -1.05 17.771654 11.585596 51.965416 0 0 0
554 1 3 -1.05 5.857025 27.128906 52.020104 0 0 0
555 1 3 -1.05 2.881137 1.387556 52.011918 0 0 0
556 1 3 -1.05 28.10854 4.015297 51.959181 0 0 0
557 1 3 -1.05 20.751116 1.389285 52.009699 0 0 0
558 1 3 -1.05 13.214877 9.163353 51.96154 0 0 0
559 1 3 -1.05 5.859963 1.288297 51.963141 0 0 0
560 1 3 -1.05 25.308649 4.015145 51.959302 0 0 0
561 1 3 -1.05 17.771093 27.13133 52.018784 0 0 0
562 1 3 -1.05 29.685997 6.538469 52.011248 0 0 0
563 1 3 -1.05 16.194592 4.014354 51.959399 0 0 0
564 1 3 -1.05 7.435081 24.607925 51.971494 0 0 0
565 1 3 -1.05 11.815721 6.537817 52.010531 0 0 0
566 1 3 -1.05 16.372042 9.162968 51.962046 0 0 0
567 1 3 -1.05 2.87946 27.029003 51.972381 0 0 0
568 1 3 -1.05 23.729073 16.837097 52.024023 0 0 0
569 1 3 -1.05 11.81259 27.129051 52.019524000000004 0 0 0
570 1 3 -1.05 8.836829 11.687432 52.017927 0 0 0
571 1 2 1.575 4.36221 21.129524 53.174088 0 0 0
572 1 2 1.575 31.169683 15.981487 53.171462 0 0 0
573 1 1 1.05 4.363353 10.832563 53.160485 0 0 0
574 1 2 1.575 25.223269 21.13044 53.172157999999996 0 0 0
575 1 1 1.05 7.33942 26.277163 53.165314 0 0 0
576 1 1 1.05 16.277122 21.132504 53.171600999999995 0 0 0
577 1 2 1.575 22.245758 15.983377 53.167029 0 0 0
578 1 2 1.575 10.321133 0.535523 53.158165 0 0 0
579 1 1 1.05 11.816756 18.546227 53.174311 0 0 0
580 1 1 1.05 16.29044 15.981659 53.169629 0 0 0
581 1 2 1.575 5.858702 28.839577 53.161657 0 0 0
582 1 2 1.575 2.878911 23.691923 53.171599 0 0 0
583 1 2 1.575 4.376773 5.68314 53.153681 0 0 0
584 1 2 1.575 26.704868 23.693108 53.171859 0 0 0
585 1 1 1.05 28.189547 21.129322 53.173711 0 0 0
586 1 2 1.575 20.75029 13.397999 53.1628 0 0 0
587 1 2 1.575 13.310673 21.131876 53.173212 0 0 0
588 1 2 1.575 28.200739 26.277155 53.168511 0 0 0
589 1 2 1.575 11.814323 28.839716 53.160548 0 0 0
590 1 2 1.575 7.352637 21.130768 53.172819000000004 0 0 0
591 1 2 1.575 13.300319 15.981406 53.171287 0 0 0
592 1 2 1.575 14.794676 13.395119 53.165233 0 0 0
593 1 2 1.575 17.772682 18.547077 53.170553999999996 0 0 0
594 1 2 1.575 4.374143 26.277132 53.166735 0 0 0
595 1 2 1.575 19.267401 21.132597 53.170226 0 0 0
596 1 2 1.575 31.167023 26.276094 53.167395 0 0 0
597 1 2 1.575 28.190006 10.834236 53.161598999999995 0 0 0
598 1 1 1.05 28.202753 15.981897 53.170916 0 0 0
599 1 2 1.575 26.709328 3.098952 53.154435 0 0 0